   2   2   1   0
  0.2289500E+02  0.3193225E-09  0.3193225E-09  0.5185384E-09  0.5000000E-15
  1.000000000000000E-004
  CAR 
 unknown system                          
     17.85522094     -4.92413805  301      4.05689193      1.00000000
     -4.924  0.0000E+00  0.0000E+00
     -4.848  0.0000E+00  0.0000E+00
     -4.772  0.0000E+00  0.0000E+00
     -4.696  0.0000E+00  0.0000E+00
     -4.620  0.0000E+00  0.0000E+00
     -4.544 -0.1203E-31 -0.9132E-33
     -4.469 -0.4818E-29 -0.3668E-30
     -4.393 -0.1410E-26 -0.1074E-27
     -4.317 -0.3093E-24 -0.2359E-25
     -4.241 -0.5088E-22 -0.3887E-23
     -4.165 -0.6283E-20 -0.4809E-21
     -4.089 -0.5639E-18 -0.4330E-19
     -4.013 -0.3934E-16 -0.3030E-17
     -3.937 -0.2052E-14 -0.1588E-15
     -3.861 -0.8062E-13 -0.6281E-14
     -3.785 -0.2387E-11 -0.1875E-12
     -3.709 -0.5326E-10 -0.4232E-11
     -3.633 -0.8959E-09 -0.7226E-10
     -3.557 -0.1135E-07 -0.9341E-09
     -3.481 -0.1080E-06 -0.9135E-08
     -3.406 -0.7676E-06 -0.6742E-07
     -3.330 -0.4030E-05 -0.3734E-06
     -3.254 -0.1530E-04 -0.1535E-05
     -3.178 -0.4003E-04 -0.4574E-05
     -3.102 -0.6223E-04 -0.9300E-05
     -3.026 -0.1129E-04 -0.1016E-04
     -2.950  0.2231E-03  0.6784E-05
     -2.874  0.6935E-03  0.5944E-04
     -2.798  0.1329E-02  0.1604E-03
     -2.722  0.1990E-02  0.3115E-03
     -2.646  0.2534E-02  0.5039E-03
     -2.570  0.2897E-02  0.7238E-03
     -2.494  0.3205E-02  0.9672E-03
     -2.418  0.3587E-02  0.1240E-02
     -2.342  0.3902E-02  0.1536E-02
     -2.267  0.4035E-02  0.1842E-02
     -2.191  0.4219E-02  0.2163E-02
     -2.115  0.4630E-02  0.2514E-02
     -2.039  0.4994E-02  0.2893E-02
     -1.963  0.5044E-02  0.3276E-02
     -1.887  0.5052E-02  0.3660E-02
     -1.811  0.5328E-02  0.4064E-02
     -1.735  0.5610E-02  0.4490E-02
     -1.659  0.5680E-02  0.4922E-02
     -1.583  0.5893E-02  0.5369E-02
     -1.507  0.6470E-02  0.5861E-02
     -1.431  0.6974E-02  0.6390E-02
     -1.355  0.6875E-02  0.6912E-02
     -1.279  0.6243E-02  0.7386E-02
     -1.204  0.5701E-02  0.7819E-02
     -1.128  0.5940E-02  0.8270E-02
     -1.052  0.7151E-02  0.8813E-02
     -0.976  0.8581E-02  0.9465E-02
     -0.900  0.9128E-02  0.1016E-01
     -0.824  0.8585E-02  0.1081E-01
     -0.748  0.7516E-02  0.1138E-01
     -0.672  0.6448E-02  0.1187E-01
     -0.596  0.6050E-02  0.1233E-01
     -0.520  0.6965E-02  0.1286E-01
     -0.444  0.8765E-02  0.1352E-01
     -0.368  0.1008E-01  0.1429E-01
     -0.292  0.1013E-01  0.1506E-01
     -0.216  0.9337E-02  0.1577E-01
     -0.140  0.8577E-02  0.1642E-01
     -0.065  0.8455E-02  0.1706E-01
      0.011  0.8947E-02  0.1774E-01
      0.087  0.9330E-02  0.1845E-01
      0.163  0.9140E-02  0.1914E-01
      0.239  0.8807E-02  0.1981E-01
      0.315  0.8785E-02  0.2048E-01
      0.391  0.8976E-02  0.2116E-01
      0.467  0.9473E-02  0.2188E-01
      0.543  0.1066E-01  0.2269E-01
      0.619  0.1203E-01  0.2360E-01
      0.695  0.1229E-01  0.2454E-01
      0.771  0.1139E-01  0.2540E-01
      0.847  0.1052E-01  0.2620E-01
      0.923  0.9973E-02  0.2696E-01
      0.998  0.9165E-02  0.2765E-01
      1.074  0.8414E-02  0.2829E-01
      1.150  0.8813E-02  0.2896E-01
      1.226  0.1039E-01  0.2975E-01
      1.302  0.1209E-01  0.3067E-01
      1.378  0.1323E-01  0.3167E-01
      1.454  0.1378E-01  0.3272E-01
      1.530  0.1383E-01  0.3377E-01
      1.606  0.1318E-01  0.3477E-01
      1.682  0.1163E-01  0.3565E-01
      1.758  0.9829E-02  0.3640E-01
      1.834  0.9201E-02  0.3710E-01
      1.910  0.1022E-01  0.3787E-01
      1.986  0.1184E-01  0.3877E-01
      2.062  0.1308E-01  0.3977E-01
      2.137  0.1396E-01  0.4083E-01
      2.213  0.1448E-01  0.4192E-01
      2.289  0.1420E-01  0.4300E-01
      2.365  0.1321E-01  0.4401E-01
      2.441  0.1216E-01  0.4493E-01
      2.517  0.1166E-01  0.4582E-01
      2.593  0.1226E-01  0.4675E-01
      2.669  0.1391E-01  0.4780E-01
      2.745  0.1547E-01  0.4898E-01
      2.821  0.1574E-01  0.5017E-01
      2.897  0.1461E-01  0.5128E-01
      2.973  0.1327E-01  0.5229E-01
      3.049  0.1327E-01  0.5330E-01
      3.125  0.1470E-01  0.5441E-01
      3.200  0.1550E-01  0.5559E-01
      3.276  0.1425E-01  0.5667E-01
      3.352  0.1235E-01  0.5761E-01
      3.428  0.1189E-01  0.5851E-01
      3.504  0.1305E-01  0.5950E-01
      3.580  0.1443E-01  0.6060E-01
      3.656  0.1481E-01  0.6172E-01
      3.732  0.1406E-01  0.6279E-01
      3.808  0.1301E-01  0.6378E-01
      3.884  0.1235E-01  0.6472E-01
      3.960  0.1176E-01  0.6561E-01
      4.036  0.1094E-01  0.6644E-01
      4.112  0.1086E-01  0.6727E-01
      4.188  0.1269E-01  0.6823E-01
      4.264  0.1579E-01  0.6943E-01
      4.339  0.1801E-01  0.7080E-01
      4.415  0.1796E-01  0.7216E-01
      4.491  0.1650E-01  0.7341E-01
      4.567  0.1546E-01  0.7459E-01
      4.643  0.1541E-01  0.7576E-01
      4.719  0.1546E-01  0.7693E-01
      4.795  0.1502E-01  0.7807E-01
      4.871  0.1426E-01  0.7915E-01
      4.947  0.1376E-01  0.8020E-01
      5.023  0.1433E-01  0.8129E-01
      5.099  0.1587E-01  0.8249E-01
      5.175  0.1693E-01  0.8378E-01
      5.251  0.1672E-01  0.8505E-01
      5.327  0.1665E-01  0.8631E-01
      5.403  0.1793E-01  0.8767E-01
      5.478  0.1910E-01  0.8912E-01
      5.554  0.1769E-01  0.9047E-01
      5.630  0.1409E-01  0.9154E-01
      5.706  0.1195E-01  0.9244E-01
      5.782  0.1358E-01  0.9348E-01
      5.858  0.1671E-01  0.9475E-01
      5.934  0.1759E-01  0.9608E-01
      6.010  0.1590E-01  0.9729E-01
      6.086  0.1423E-01  0.9837E-01
      6.162  0.1422E-01  0.9945E-01
      6.238  0.1574E-01  0.1006E+00
      6.314  0.1799E-01  0.1020E+00
      6.390  0.1976E-01  0.1035E+00
      6.466  0.1984E-01  0.1050E+00
      6.541  0.1838E-01  0.1064E+00
      6.617  0.1693E-01  0.1077E+00
      6.693  0.1644E-01  0.1089E+00
      6.769  0.1631E-01  0.1102E+00
      6.845  0.1611E-01  0.1114E+00
      6.921  0.1645E-01  0.1127E+00
      6.997  0.1735E-01  0.1140E+00
      7.073  0.1777E-01  0.1153E+00
      7.149  0.1730E-01  0.1166E+00
      7.225  0.1667E-01  0.1179E+00
      7.301  0.1688E-01  0.1192E+00
      7.377  0.1852E-01  0.1206E+00
      7.453  0.2103E-01  0.1222E+00
      7.529  0.2277E-01  0.1239E+00
      7.605  0.2292E-01  0.1257E+00
      7.680  0.2209E-01  0.1273E+00
      7.756  0.2058E-01  0.1289E+00
      7.832  0.1819E-01  0.1303E+00
      7.908  0.1561E-01  0.1315E+00
      7.984  0.1407E-01  0.1325E+00
      8.060  0.1396E-01  0.1336E+00
      8.136  0.1494E-01  0.1347E+00
      8.212  0.1653E-01  0.1360E+00
      8.288  0.1808E-01  0.1374E+00
      8.364  0.1916E-01  0.1388E+00
      8.440  0.2011E-01  0.1403E+00
      8.516  0.2126E-01  0.1420E+00
      8.592  0.2212E-01  0.1436E+00
      8.668  0.2206E-01  0.1453E+00
      8.743  0.2108E-01  0.1469E+00
      8.819  0.1941E-01  0.1484E+00
      8.895  0.1711E-01  0.1497E+00
      8.971  0.1485E-01  0.1508E+00
      9.047  0.1422E-01  0.1519E+00
      9.123  0.1571E-01  0.1531E+00
      9.199  0.1746E-01  0.1544E+00
      9.275  0.1729E-01  0.1557E+00
      9.351  0.1532E-01  0.1569E+00
      9.427  0.1338E-01  0.1579E+00
      9.503  0.1300E-01  0.1589E+00
      9.579  0.1439E-01  0.1600E+00
      9.655  0.1638E-01  0.1612E+00
      9.731  0.1728E-01  0.1625E+00
      9.807  0.1674E-01  0.1638E+00
      9.882  0.1639E-01  0.1650E+00
      9.958  0.1720E-01  0.1664E+00
     10.034  0.1765E-01  0.1677E+00
     10.110  0.1624E-01  0.1689E+00
     10.186  0.1405E-01  0.1700E+00
     10.262  0.1295E-01  0.1710E+00
     10.338  0.1303E-01  0.1720E+00
     10.414  0.1314E-01  0.1730E+00
     10.490  0.1254E-01  0.1739E+00
     10.566  0.1129E-01  0.1748E+00
     10.642  0.9657E-02  0.1755E+00
     10.718  0.8054E-02  0.1761E+00
     10.794  0.7714E-02  0.1767E+00
     10.870  0.9938E-02  0.1775E+00
     10.945  0.1394E-01  0.1785E+00
     11.021  0.1681E-01  0.1798E+00
     11.097  0.1644E-01  0.1810E+00
     11.173  0.1367E-01  0.1821E+00
     11.249  0.1071E-01  0.1829E+00
     11.325  0.8474E-02  0.1835E+00
     11.401  0.6635E-02  0.1840E+00
     11.477  0.5657E-02  0.1845E+00
     11.553  0.6276E-02  0.1849E+00
     11.629  0.7692E-02  0.1855E+00
     11.705  0.8596E-02  0.1862E+00
     11.781  0.9045E-02  0.1869E+00
     11.857  0.9538E-02  0.1876E+00
     11.933  0.9543E-02  0.1883E+00
     12.009  0.8364E-02  0.1890E+00
     12.084  0.6641E-02  0.1895E+00
     12.160  0.5955E-02  0.1899E+00
     12.236  0.6867E-02  0.1904E+00
     12.312  0.8063E-02  0.1910E+00
     12.388  0.7864E-02  0.1916E+00
     12.464  0.6067E-02  0.1921E+00
     12.540  0.3963E-02  0.1924E+00
     12.616  0.2832E-02  0.1926E+00
     12.692  0.2749E-02  0.1928E+00
     12.768  0.2921E-02  0.1930E+00
     12.844  0.2910E-02  0.1933E+00
     12.920  0.3017E-02  0.1935E+00
     12.996  0.3569E-02  0.1938E+00
     13.072  0.4325E-02  0.1941E+00
     13.147  0.4732E-02  0.1945E+00
     13.223  0.4450E-02  0.1948E+00
     13.299  0.3635E-02  0.1951E+00
     13.375  0.3025E-02  0.1953E+00
     13.451  0.3410E-02  0.1956E+00
     13.527  0.4576E-02  0.1959E+00
     13.603  0.5303E-02  0.1963E+00
     13.679  0.4774E-02  0.1967E+00
     13.755  0.3418E-02  0.1969E+00
     13.831  0.2217E-02  0.1971E+00
     13.907  0.1688E-02  0.1972E+00
     13.983  0.1628E-02  0.1974E+00
     14.059  0.1687E-02  0.1975E+00
     14.135  0.1810E-02  0.1976E+00
     14.211  0.1952E-02  0.1978E+00
     14.286  0.1918E-02  0.1979E+00
     14.362  0.1796E-02  0.1980E+00
     14.438  0.1983E-02  0.1982E+00
     14.514  0.2467E-02  0.1984E+00
     14.590  0.2631E-02  0.1986E+00
     14.666  0.2183E-02  0.1988E+00
     14.742  0.1717E-02  0.1989E+00
     14.818  0.1834E-02  0.1990E+00
     14.894  0.2223E-02  0.1992E+00
     14.970  0.2171E-02  0.1994E+00
     15.046  0.1591E-02  0.1995E+00
     15.122  0.1049E-02  0.1996E+00
     15.198  0.9214E-03  0.1996E+00
     15.274  0.9893E-03  0.1997E+00
     15.349  0.8717E-03  0.1998E+00
     15.425  0.5457E-03  0.1998E+00
     15.501  0.2970E-03  0.1998E+00
     15.577  0.3064E-03  0.1999E+00
     15.653  0.4544E-03  0.1999E+00
     15.729  0.5217E-03  0.1999E+00
     15.805  0.4454E-03  0.2000E+00
     15.881  0.3041E-03  0.2000E+00
     15.957  0.1667E-03  0.2000E+00
     16.033  0.6033E-04  0.2000E+00
     16.109  0.1261E-05  0.2000E+00
     16.185 -0.1429E-04  0.2000E+00
     16.261 -0.9719E-05  0.2000E+00
     16.337 -0.3653E-05  0.2000E+00
     16.413 -0.9064E-06  0.2000E+00
     16.488 -0.1570E-06  0.2000E+00
     16.564 -0.1947E-07  0.2000E+00
     16.640 -0.1754E-08  0.2000E+00
     16.716 -0.1158E-09  0.2000E+00
     16.792 -0.5628E-11  0.2000E+00
     16.868 -0.2024E-12  0.2000E+00
     16.944 -0.5400E-14  0.2000E+00
     17.020 -0.1071E-15  0.2000E+00
     17.096 -0.1574E-17  0.2000E+00
     17.172  0.0000E+00  0.2000E+00
     17.248  0.0000E+00  0.2000E+00
     17.324  0.0000E+00  0.2000E+00
     17.400  0.0000E+00  0.2000E+00
     17.476  0.0000E+00  0.2000E+00
     17.551  0.0000E+00  0.2000E+00
     17.627  0.0000E+00  0.2000E+00
     17.703  0.0000E+00  0.2000E+00
     17.779  0.0000E+00  0.2000E+00
     17.855  0.0000E+00  0.2000E+00
     17.85522094     -4.92413805  301      4.05689193      1.00000000
     -4.924  0.0000E+00  0.0000E+00  0.0000E+00  0.0000E+00  0.0000E+00  0.0000E+00  0.0000E+00  0.0000E+00  0.0000E+00
     -4.848  0.0000E+00  0.0000E+00  0.0000E+00  0.0000E+00  0.0000E+00  0.0000E+00  0.0000E+00  0.0000E+00  0.0000E+00
     -4.772  0.0000E+00  0.0000E+00  0.0000E+00  0.0000E+00  0.0000E+00  0.0000E+00  0.0000E+00  0.0000E+00  0.0000E+00
     -4.696  0.0000E+00  0.0000E+00  0.0000E+00  0.0000E+00  0.0000E+00  0.0000E+00  0.0000E+00  0.0000E+00  0.0000E+00
     -4.620  0.0000E+00  0.0000E+00  0.0000E+00  0.0000E+00  0.0000E+00  0.0000E+00  0.0000E+00  0.0000E+00  0.0000E+00
     -4.544 -0.6378E-31 -0.7023E-46 -0.6089E-50 -0.1334E-45  0.0000E+00  0.0000E+00  0.0000E+00  0.0000E+00  0.0000E+00
     -4.469 -0.2555E-28 -0.1040E-32 -0.1438E-32 -0.3119E-32  0.0000E+00  0.0000E+00  0.0000E+00  0.0000E+00  0.0000E+00
     -4.393 -0.7476E-26 -0.3950E-30 -0.5551E-30 -0.1185E-29  0.0000E+00  0.0000E+00  0.0000E+00  0.0000E+00  0.0000E+00
     -4.317 -0.1640E-23 -0.1116E-27 -0.1574E-27 -0.3348E-27  0.0000E+00  0.0000E+00  0.0000E+00  0.0000E+00  0.0000E+00
     -4.241 -0.2697E-21 -0.2360E-25 -0.3342E-25 -0.7077E-25  0.0000E+00  0.0000E+00  0.0000E+00  0.0000E+00  0.0000E+00
     -4.165 -0.3330E-19 -0.3731E-23 -0.5319E-23 -0.1119E-22  0.0000E+00  0.0000E+00  0.0000E+00  0.0000E+00  0.0000E+00
     -4.089 -0.2988E-17 -0.4411E-21 -0.6344E-21 -0.1322E-20  0.0000E+00  0.0000E+00  0.0000E+00  0.0000E+00  0.0000E+00
     -4.013 -0.2084E-15 -0.3808E-19 -0.5552E-19 -0.1140E-18  0.0000E+00  0.0000E+00  0.0000E+00  0.0000E+00  0.0000E+00
     -3.937 -0.1087E-13 -0.2492E-17 -0.3680E-17 -0.7453E-17  0.0000E+00  0.0000E+00  0.0000E+00  0.0000E+00  0.0000E+00
     -3.861 -0.4269E-12 -0.1226E-15 -0.1844E-15 -0.3659E-15  0.0000E+00  0.0000E+00  0.0000E+00  0.0000E+00  0.0000E+00
     -3.785 -0.1263E-10 -0.4507E-14 -0.6932E-14 -0.1340E-13  0.0000E+00  0.0000E+00  0.0000E+00  0.0000E+00  0.0000E+00
     -3.709 -0.2818E-09 -0.1238E-12 -0.1954E-12 -0.3656E-12  0.0000E+00  0.0000E+00  0.0000E+00  0.0000E+00  0.0000E+00
     -3.633 -0.4738E-08 -0.2543E-11 -0.4130E-11 -0.7427E-11  0.0000E+00  0.0000E+00  0.0000E+00  0.0000E+00  0.0000E+00
     -3.557 -0.5998E-07 -0.3911E-10 -0.6535E-10 -0.1121E-09  0.0000E+00  0.0000E+00  0.0000E+00  0.0000E+00  0.0000E+00
     -3.481 -0.5704E-06 -0.4515E-09 -0.7723E-09 -0.1254E-08  0.0000E+00  0.0000E+00  0.0000E+00  0.0000E+00  0.0000E+00
     -3.406 -0.4050E-05 -0.3926E-08 -0.6786E-08 -0.1035E-07  0.0000E+00  0.0000E+00  0.0000E+00  0.0000E+00  0.0000E+00
     -3.330 -0.2124E-04 -0.2587E-07 -0.4401E-07 -0.6263E-07  0.0000E+00  0.0000E+00  0.0000E+00  0.0000E+00  0.0000E+00
     -3.254 -0.8053E-04 -0.1300E-06 -0.2081E-06 -0.2746E-06  0.0000E+00  0.0000E+00  0.0000E+00  0.0000E+00  0.0000E+00
     -3.178 -0.2102E-03 -0.4990E-06 -0.7029E-06 -0.8537E-06  0.0000E+00  0.0000E+00  0.0000E+00  0.0000E+00  0.0000E+00
     -3.102 -0.3252E-03 -0.1439E-05 -0.1630E-05 -0.1793E-05  0.0000E+00  0.0000E+00  0.0000E+00  0.0000E+00  0.0000E+00
     -3.026 -0.5265E-04 -0.2901E-05 -0.2314E-05 -0.2128E-05  0.0000E+00  0.0000E+00  0.0000E+00  0.0000E+00  0.0000E+00
     -2.950  0.1186E-02 -0.2918E-05 -0.7711E-06  0.5076E-06  0.0000E+00  0.0000E+00  0.0000E+00  0.0000E+00  0.0000E+00
     -2.874  0.3658E-02  0.3978E-05  0.6147E-05  0.9511E-05  0.0000E+00  0.0000E+00  0.0000E+00  0.0000E+00  0.0000E+00
     -2.798  0.6973E-02  0.2371E-04  0.2330E-04  0.2882E-04  0.0000E+00  0.0000E+00  0.0000E+00  0.0000E+00  0.0000E+00
     -2.722  0.1039E-01  0.5426E-04  0.5644E-04  0.6046E-04  0.0000E+00  0.0000E+00  0.0000E+00  0.0000E+00  0.0000E+00
     -2.646  0.1315E-01  0.8787E-04  0.1040E-03  0.1003E-03  0.0000E+00  0.0000E+00  0.0000E+00  0.0000E+00  0.0000E+00
     -2.570  0.1494E-01  0.1313E-03  0.1528E-03  0.1446E-03  0.0000E+00  0.0000E+00  0.0000E+00  0.0000E+00  0.0000E+00
     -2.494  0.1641E-01  0.2022E-03  0.1947E-03  0.2039E-03  0.0000E+00  0.0000E+00  0.0000E+00  0.0000E+00  0.0000E+00
     -2.418  0.1823E-01  0.2831E-03  0.2418E-03  0.2858E-03  0.0000E+00  0.0000E+00  0.0000E+00  0.0000E+00  0.0000E+00
     -2.342  0.1971E-01  0.3254E-03  0.3147E-03  0.3657E-03  0.0000E+00  0.0000E+00  0.0000E+00  0.0000E+00  0.0000E+00
     -2.267  0.2026E-01  0.3375E-03  0.4220E-03  0.4147E-03  0.0000E+00  0.0000E+00  0.0000E+00  0.0000E+00  0.0000E+00
     -2.191  0.2101E-01  0.4036E-03  0.5409E-03  0.4572E-03  0.0000E+00  0.0000E+00  0.0000E+00  0.0000E+00  0.0000E+00
     -2.115  0.2287E-01  0.5635E-03  0.6128E-03  0.5457E-03  0.0000E+00  0.0000E+00  0.0000E+00  0.0000E+00  0.0000E+00
     -2.039  0.2452E-01  0.7367E-03  0.6029E-03  0.6719E-03  0.0000E+00  0.0000E+00  0.0000E+00  0.0000E+00  0.0000E+00
     -1.963  0.2461E-01  0.8232E-03  0.5902E-03  0.7724E-03  0.0000E+00  0.0000E+00  0.0000E+00  0.0000E+00  0.0000E+00
     -1.887  0.2446E-01  0.8284E-03  0.7188E-03  0.8410E-03  0.0000E+00  0.0000E+00  0.0000E+00  0.0000E+00  0.0000E+00
     -1.811  0.2558E-01  0.8209E-03  0.9864E-03  0.9205E-03  0.0000E+00  0.0000E+00  0.0000E+00  0.0000E+00  0.0000E+00
     -1.735  0.2677E-01  0.8463E-03  0.1202E-02  0.9960E-03  0.0000E+00  0.0000E+00  0.0000E+00  0.0000E+00  0.0000E+00
     -1.659  0.2691E-01  0.9637E-03  0.1243E-02  0.1060E-02  0.0000E+00  0.0000E+00  0.0000E+00  0.0000E+00  0.0000E+00
     -1.583  0.2768E-01  0.1232E-02  0.1199E-02  0.1199E-02  0.0000E+00  0.0000E+00  0.0000E+00  0.0000E+00  0.0000E+00
     -1.507  0.3013E-01  0.1575E-02  0.1226E-02  0.1438E-02  0.0000E+00  0.0000E+00  0.0000E+00  0.0000E+00  0.0000E+00
     -1.431  0.3226E-01  0.1784E-02  0.1360E-02  0.1636E-02  0.0000E+00  0.0000E+00  0.0000E+00  0.0000E+00  0.0000E+00
     -1.355  0.3161E-01  0.1698E-02  0.1513E-02  0.1682E-02  0.0000E+00  0.0000E+00  0.0000E+00  0.0000E+00  0.0000E+00
     -1.279  0.2851E-01  0.1388E-02  0.1588E-02  0.1649E-02  0.0000E+00  0.0000E+00  0.0000E+00  0.0000E+00  0.0000E+00
     -1.204  0.2581E-01  0.1169E-02  0.1633E-02  0.1638E-02  0.0000E+00  0.0000E+00  0.0000E+00  0.0000E+00  0.0000E+00
     -1.128  0.2661E-01  0.1391E-02  0.1821E-02  0.1693E-02  0.0000E+00  0.0000E+00  0.0000E+00  0.0000E+00  0.0000E+00
     -1.052  0.3172E-01  0.2072E-02  0.2234E-02  0.1897E-02  0.0000E+00  0.0000E+00  0.0000E+00  0.0000E+00  0.0000E+00
     -0.976  0.3780E-01  0.2778E-02  0.2637E-02  0.2278E-02  0.0000E+00  0.0000E+00  0.0000E+00  0.0000E+00  0.0000E+00
     -0.900  0.3998E-01  0.3054E-02  0.2699E-02  0.2652E-02  0.0000E+00  0.0000E+00  0.0000E+00  0.0000E+00  0.0000E+00
     -0.824  0.3734E-01  0.2877E-02  0.2450E-02  0.2817E-02  0.0000E+00  0.0000E+00  0.0000E+00  0.0000E+00  0.0000E+00
     -0.748  0.3244E-01  0.2464E-02  0.2177E-02  0.2720E-02  0.0000E+00  0.0000E+00  0.0000E+00  0.0000E+00  0.0000E+00
     -0.672  0.2760E-01  0.2021E-02  0.2040E-02  0.2467E-02  0.0000E+00  0.0000E+00  0.0000E+00  0.0000E+00  0.0000E+00
     -0.596  0.2560E-01  0.1889E-02  0.2161E-02  0.2342E-02  0.0000E+00  0.0000E+00  0.0000E+00  0.0000E+00  0.0000E+00
     -0.520  0.2911E-01  0.2378E-02  0.2714E-02  0.2599E-02  0.0000E+00  0.0000E+00  0.0000E+00  0.0000E+00  0.0000E+00
     -0.444  0.3633E-01  0.3277E-02  0.3559E-02  0.3120E-02  0.0000E+00  0.0000E+00  0.0000E+00  0.0000E+00  0.0000E+00
     -0.368  0.4153E-01  0.3972E-02  0.4142E-02  0.3565E-02  0.0000E+00  0.0000E+00  0.0000E+00  0.0000E+00  0.0000E+00
     -0.292  0.4145E-01  0.4108E-02  0.4064E-02  0.3807E-02  0.0000E+00  0.0000E+00  0.0000E+00  0.0000E+00  0.0000E+00
     -0.216  0.3790E-01  0.3872E-02  0.3559E-02  0.3902E-02  0.0000E+00  0.0000E+00  0.0000E+00  0.0000E+00  0.0000E+00
     -0.140  0.3445E-01  0.3644E-02  0.3229E-02  0.3857E-02  0.0000E+00  0.0000E+00  0.0000E+00  0.0000E+00  0.0000E+00
     -0.065  0.3357E-01  0.3659E-02  0.3460E-02  0.3802E-02  0.0000E+00  0.0000E+00  0.0000E+00  0.0000E+00  0.0000E+00
      0.011  0.3516E-01  0.3864E-02  0.4060E-02  0.3953E-02  0.0000E+00  0.0000E+00  0.0000E+00  0.0000E+00  0.0000E+00
      0.087  0.3636E-01  0.3987E-02  0.4452E-02  0.4210E-02  0.0000E+00  0.0000E+00  0.0000E+00  0.0000E+00  0.0000E+00
      0.163  0.3531E-01  0.3957E-02  0.4369E-02  0.4332E-02  0.0000E+00  0.0000E+00  0.0000E+00  0.0000E+00  0.0000E+00
      0.239  0.3367E-01  0.4035E-02  0.4130E-02  0.4340E-02  0.0000E+00  0.0000E+00  0.0000E+00  0.0000E+00  0.0000E+00
      0.315  0.3324E-01  0.4316E-02  0.4101E-02  0.4349E-02  0.0000E+00  0.0000E+00  0.0000E+00  0.0000E+00  0.0000E+00
      0.391  0.3364E-01  0.4608E-02  0.4286E-02  0.4422E-02  0.0000E+00  0.0000E+00  0.0000E+00  0.0000E+00  0.0000E+00
      0.467  0.3510E-01  0.4964E-02  0.4645E-02  0.4783E-02  0.0000E+00  0.0000E+00  0.0000E+00  0.0000E+00  0.0000E+00
      0.543  0.3901E-01  0.5730E-02  0.5286E-02  0.5614E-02  0.0000E+00  0.0000E+00  0.0000E+00  0.0000E+00  0.0000E+00
      0.619  0.4357E-01  0.6668E-02  0.6036E-02  0.6438E-02  0.0000E+00  0.0000E+00  0.0000E+00  0.0000E+00  0.0000E+00
      0.695  0.4416E-01  0.6876E-02  0.6547E-02  0.6444E-02  0.0000E+00  0.0000E+00  0.0000E+00  0.0000E+00  0.0000E+00
      0.771  0.4051E-01  0.6151E-02  0.6849E-02  0.5759E-02  0.0000E+00  0.0000E+00  0.0000E+00  0.0000E+00  0.0000E+00
      0.847  0.3690E-01  0.5361E-02  0.6941E-02  0.5416E-02  0.0000E+00  0.0000E+00  0.0000E+00  0.0000E+00  0.0000E+00
      0.923  0.3459E-01  0.5017E-02  0.6351E-02  0.5776E-02  0.0000E+00  0.0000E+00  0.0000E+00  0.0000E+00  0.0000E+00
      0.998  0.3147E-01  0.4784E-02  0.5091E-02  0.6148E-02  0.0000E+00  0.0000E+00  0.0000E+00  0.0000E+00  0.0000E+00
      1.074  0.2852E-01  0.4664E-02  0.4250E-02  0.6112E-02  0.0000E+00  0.0000E+00  0.0000E+00  0.0000E+00  0.0000E+00
      1.150  0.2940E-01  0.5306E-02  0.4758E-02  0.6051E-02  0.0000E+00  0.0000E+00  0.0000E+00  0.0000E+00  0.0000E+00
      1.226  0.3422E-01  0.6840E-02  0.6196E-02  0.6305E-02  0.0000E+00  0.0000E+00  0.0000E+00  0.0000E+00  0.0000E+00
      1.302  0.3937E-01  0.8487E-02  0.7498E-02  0.6866E-02  0.0000E+00  0.0000E+00  0.0000E+00  0.0000E+00  0.0000E+00
      1.378  0.4250E-01  0.9477E-02  0.8215E-02  0.7764E-02  0.0000E+00  0.0000E+00  0.0000E+00  0.0000E+00  0.0000E+00
      1.454  0.4359E-01  0.9600E-02  0.8594E-02  0.8875E-02  0.0000E+00  0.0000E+00  0.0000E+00  0.0000E+00  0.0000E+00
      1.530  0.4304E-01  0.9069E-02  0.8928E-02  0.9694E-02  0.0000E+00  0.0000E+00  0.0000E+00  0.0000E+00  0.0000E+00
      1.606  0.4047E-01  0.8158E-02  0.9083E-02  0.9585E-02  0.0000E+00  0.0000E+00  0.0000E+00  0.0000E+00  0.0000E+00
      1.682  0.3529E-01  0.7012E-02  0.8699E-02  0.8274E-02  0.0000E+00  0.0000E+00  0.0000E+00  0.0000E+00  0.0000E+00
      1.758  0.2932E-01  0.6014E-02  0.7990E-02  0.6619E-02  0.0000E+00  0.0000E+00  0.0000E+00  0.0000E+00  0.0000E+00
      1.834  0.2671E-01  0.5840E-02  0.7695E-02  0.6319E-02  0.0000E+00  0.0000E+00  0.0000E+00  0.0000E+00  0.0000E+00
      1.910  0.2896E-01  0.6622E-02  0.8083E-02  0.7917E-02  0.0000E+00  0.0000E+00  0.0000E+00  0.0000E+00  0.0000E+00
      1.986  0.3314E-01  0.7799E-02  0.8785E-02  0.9958E-02  0.0000E+00  0.0000E+00  0.0000E+00  0.0000E+00  0.0000E+00
      2.062  0.3631E-01  0.9078E-02  0.9558E-02  0.1091E-01  0.0000E+00  0.0000E+00  0.0000E+00  0.0000E+00  0.0000E+00
      2.137  0.3822E-01  0.1055E-01  0.1044E-01  0.1092E-01  0.0000E+00  0.0000E+00  0.0000E+00  0.0000E+00  0.0000E+00
      2.213  0.3873E-01  0.1171E-01  0.1110E-01  0.1089E-01  0.0000E+00  0.0000E+00  0.0000E+00  0.0000E+00  0.0000E+00
      2.289  0.3673E-01  0.1166E-01  0.1107E-01  0.1116E-01  0.0000E+00  0.0000E+00  0.0000E+00  0.0000E+00  0.0000E+00
      2.365  0.3266E-01  0.1044E-01  0.1044E-01  0.1171E-01  0.0000E+00  0.0000E+00  0.0000E+00  0.0000E+00  0.0000E+00
      2.441  0.2852E-01  0.8879E-02  0.9776E-02  0.1240E-01  0.0000E+00  0.0000E+00  0.0000E+00  0.0000E+00  0.0000E+00
      2.517  0.2633E-01  0.7855E-02  0.9677E-02  0.1303E-01  0.0000E+00  0.0000E+00  0.0000E+00  0.0000E+00  0.0000E+00
      2.593  0.2757E-01  0.7999E-02  0.1073E-01  0.1357E-01  0.0000E+00  0.0000E+00  0.0000E+00  0.0000E+00  0.0000E+00
      2.669  0.3166E-01  0.9284E-02  0.1285E-01  0.1428E-01  0.0000E+00  0.0000E+00  0.0000E+00  0.0000E+00  0.0000E+00
      2.745  0.3499E-01  0.1068E-01  0.1472E-01  0.1532E-01  0.0000E+00  0.0000E+00  0.0000E+00  0.0000E+00  0.0000E+00
      2.821  0.3437E-01  0.1100E-01  0.1496E-01  0.1644E-01  0.0000E+00  0.0000E+00  0.0000E+00  0.0000E+00  0.0000E+00
      2.897  0.3012E-01  0.1004E-01  0.1378E-01  0.1700E-01  0.0000E+00  0.0000E+00  0.0000E+00  0.0000E+00  0.0000E+00
      2.973  0.2532E-01  0.8877E-02  0.1282E-01  0.1688E-01  0.0000E+00  0.0000E+00  0.0000E+00  0.0000E+00  0.0000E+00
      3.049  0.2350E-01  0.8912E-02  0.1321E-01  0.1763E-01  0.0000E+00  0.0000E+00  0.0000E+00  0.0000E+00  0.0000E+00
      3.125  0.2548E-01  0.9998E-02  0.1393E-01  0.2034E-01  0.0000E+00  0.0000E+00  0.0000E+00  0.0000E+00  0.0000E+00
      3.200  0.2744E-01  0.1025E-01  0.1302E-01  0.2293E-01  0.0000E+00  0.0000E+00  0.0000E+00  0.0000E+00  0.0000E+00
      3.276  0.2574E-01  0.8824E-02  0.1071E-01  0.2262E-01  0.0000E+00  0.0000E+00  0.0000E+00  0.0000E+00  0.0000E+00
      3.352  0.2202E-01  0.7336E-02  0.9354E-02  0.2003E-01  0.0000E+00  0.0000E+00  0.0000E+00  0.0000E+00  0.0000E+00
      3.428  0.2005E-01  0.7513E-02  0.1029E-01  0.1832E-01  0.0000E+00  0.0000E+00  0.0000E+00  0.0000E+00  0.0000E+00
      3.504  0.2040E-01  0.9030E-02  0.1240E-01  0.1928E-01  0.0000E+00  0.0000E+00  0.0000E+00  0.0000E+00  0.0000E+00
      3.580  0.2132E-01  0.1034E-01  0.1381E-01  0.2163E-01  0.0000E+00  0.0000E+00  0.0000E+00  0.0000E+00  0.0000E+00
      3.656  0.2249E-01  0.1024E-01  0.1368E-01  0.2249E-01  0.0000E+00  0.0000E+00  0.0000E+00  0.0000E+00  0.0000E+00
      3.732  0.2500E-01  0.8576E-02  0.1247E-01  0.2046E-01  0.0000E+00  0.0000E+00  0.0000E+00  0.0000E+00  0.0000E+00
      3.808  0.2876E-01  0.6315E-02  0.1127E-01  0.1695E-01  0.0000E+00  0.0000E+00  0.0000E+00  0.0000E+00  0.0000E+00
      3.884  0.3173E-01  0.4764E-02  0.1087E-01  0.1414E-01  0.0000E+00  0.0000E+00  0.0000E+00  0.0000E+00  0.0000E+00
      3.960  0.3142E-01  0.4399E-02  0.1111E-01  0.1209E-01  0.0000E+00  0.0000E+00  0.0000E+00  0.0000E+00  0.0000E+00
      4.036  0.2826E-01  0.5042E-02  0.1139E-01  0.9862E-02  0.0000E+00  0.0000E+00  0.0000E+00  0.0000E+00  0.0000E+00
      4.112  0.2685E-01  0.6642E-02  0.1164E-01  0.8519E-02  0.0000E+00  0.0000E+00  0.0000E+00  0.0000E+00  0.0000E+00
      4.188  0.3095E-01  0.9068E-02  0.1204E-01  0.1035E-01  0.0000E+00  0.0000E+00  0.0000E+00  0.0000E+00  0.0000E+00
      4.264  0.3849E-01  0.1147E-01  0.1211E-01  0.1551E-01  0.0000E+00  0.0000E+00  0.0000E+00  0.0000E+00  0.0000E+00
      4.339  0.4391E-01  0.1258E-01  0.1120E-01  0.2089E-01  0.0000E+00  0.0000E+00  0.0000E+00  0.0000E+00  0.0000E+00
      4.415  0.4387E-01  0.1190E-01  0.9860E-02  0.2288E-01  0.0000E+00  0.0000E+00  0.0000E+00  0.0000E+00  0.0000E+00
      4.491  0.3999E-01  0.1047E-01  0.9774E-02  0.2092E-01  0.0000E+00  0.0000E+00  0.0000E+00  0.0000E+00  0.0000E+00
      4.567  0.3651E-01  0.9607E-02  0.1156E-01  0.1770E-01  0.0000E+00  0.0000E+00  0.0000E+00  0.0000E+00  0.0000E+00
      4.643  0.3548E-01  0.9290E-02  0.1370E-01  0.1585E-01  0.0000E+00  0.0000E+00  0.0000E+00  0.0000E+00  0.0000E+00
      4.719  0.3552E-01  0.8781E-02  0.1438E-01  0.1558E-01  0.0000E+00  0.0000E+00  0.0000E+00  0.0000E+00  0.0000E+00
      4.795  0.3508E-01  0.7956E-02  0.1357E-01  0.1573E-01  0.0000E+00  0.0000E+00  0.0000E+00  0.0000E+00  0.0000E+00
      4.871  0.3386E-01  0.6924E-02  0.1257E-01  0.1563E-01  0.0000E+00  0.0000E+00  0.0000E+00  0.0000E+00  0.0000E+00
      4.947  0.3252E-01  0.5753E-02  0.1245E-01  0.1589E-01  0.0000E+00  0.0000E+00  0.0000E+00  0.0000E+00  0.0000E+00
      5.023  0.3257E-01  0.5325E-02  0.1332E-01  0.1764E-01  0.0000E+00  0.0000E+00  0.0000E+00  0.0000E+00  0.0000E+00
      5.099  0.3395E-01  0.6700E-02  0.1448E-01  0.2024E-01  0.0000E+00  0.0000E+00  0.0000E+00  0.0000E+00  0.0000E+00
      5.175  0.3352E-01  0.9456E-02  0.1520E-01  0.2107E-01  0.0000E+00  0.0000E+00  0.0000E+00  0.0000E+00  0.0000E+00
      5.251  0.2946E-01  0.1226E-01  0.1578E-01  0.1925E-01  0.0000E+00  0.0000E+00  0.0000E+00  0.0000E+00  0.0000E+00
      5.327  0.2521E-01  0.1432E-01  0.1727E-01  0.1781E-01  0.0000E+00  0.0000E+00  0.0000E+00  0.0000E+00  0.0000E+00
      5.403  0.2543E-01  0.1480E-01  0.1952E-01  0.1980E-01  0.0000E+00  0.0000E+00  0.0000E+00  0.0000E+00  0.0000E+00
      5.478  0.2915E-01  0.1265E-01  0.2042E-01  0.2331E-01  0.0000E+00  0.0000E+00  0.0000E+00  0.0000E+00  0.0000E+00
      5.554  0.3059E-01  0.8532E-02  0.1832E-01  0.2327E-01  0.0000E+00  0.0000E+00  0.0000E+00  0.0000E+00  0.0000E+00
      5.630  0.2785E-01  0.5105E-02  0.1448E-01  0.1854E-01  0.0000E+00  0.0000E+00  0.0000E+00  0.0000E+00  0.0000E+00
      5.706  0.2662E-01  0.4517E-02  0.1217E-01  0.1434E-01  0.0000E+00  0.0000E+00  0.0000E+00  0.0000E+00  0.0000E+00
      5.782  0.3162E-01  0.6401E-02  0.1282E-01  0.1561E-01  0.0000E+00  0.0000E+00  0.0000E+00  0.0000E+00  0.0000E+00
      5.858  0.3829E-01  0.8604E-02  0.1415E-01  0.2038E-01  0.0000E+00  0.0000E+00  0.0000E+00  0.0000E+00  0.0000E+00
      5.934  0.3889E-01  0.9491E-02  0.1354E-01  0.2300E-01  0.0000E+00  0.0000E+00  0.0000E+00  0.0000E+00  0.0000E+00
      6.010  0.3361E-01  0.9288E-02  0.1175E-01  0.2145E-01  0.0000E+00  0.0000E+00  0.0000E+00  0.0000E+00  0.0000E+00
      6.086  0.2913E-01  0.9091E-02  0.1148E-01  0.1817E-01  0.0000E+00  0.0000E+00  0.0000E+00  0.0000E+00  0.0000E+00
      6.162  0.2928E-01  0.9327E-02  0.1349E-01  0.1607E-01  0.0000E+00  0.0000E+00  0.0000E+00  0.0000E+00  0.0000E+00
      6.238  0.3299E-01  0.9806E-02  0.1614E-01  0.1692E-01  0.0000E+00  0.0000E+00  0.0000E+00  0.0000E+00  0.0000E+00
      6.314  0.3824E-01  0.1045E-01  0.1761E-01  0.2065E-01  0.0000E+00  0.0000E+00  0.0000E+00  0.0000E+00  0.0000E+00
      6.390  0.4244E-01  0.1118E-01  0.1762E-01  0.2443E-01  0.0000E+00  0.0000E+00  0.0000E+00  0.0000E+00  0.0000E+00
      6.466  0.4227E-01  0.1177E-01  0.1735E-01  0.2454E-01  0.0000E+00  0.0000E+00  0.0000E+00  0.0000E+00  0.0000E+00
      6.541  0.3784E-01  0.1221E-01  0.1776E-01  0.2063E-01  0.0000E+00  0.0000E+00  0.0000E+00  0.0000E+00  0.0000E+00
      6.617  0.3374E-01  0.1261E-01  0.1835E-01  0.1654E-01  0.0000E+00  0.0000E+00  0.0000E+00  0.0000E+00  0.0000E+00
      6.693  0.3302E-01  0.1246E-01  0.1788E-01  0.1594E-01  0.0000E+00  0.0000E+00  0.0000E+00  0.0000E+00  0.0000E+00
      6.769  0.3417E-01  0.1116E-01  0.1592E-01  0.1839E-01  0.0000E+00  0.0000E+00  0.0000E+00  0.0000E+00  0.0000E+00
      6.845  0.3532E-01  0.9569E-02  0.1397E-01  0.2095E-01  0.0000E+00  0.0000E+00  0.0000E+00  0.0000E+00  0.0000E+00
      6.921  0.3629E-01  0.9492E-02  0.1432E-01  0.2186E-01  0.0000E+00  0.0000E+00  0.0000E+00  0.0000E+00  0.0000E+00