    2    2   60    1
  0.2289500E+02  0.3193225E-09  0.3193225E-09  0.5185384E-09  0.5000000E-15
  1.000000000000000E-004
  CAR 
 unknown system                          
    4  165    6
 
  0.3742002E-15  0.3742002E-15  0.3742002E-15  0.3844675E-03
   1       -2.924138
   2        2.281532
   3        2.679228
   4       15.144183
   5       15.144247
   6       15.263968
 
  0.5882353E-01  0.3816392E-15  0.3742002E-15  0.2306805E-02
   1       -2.855233
   2        2.344455
   3        2.746359
   4       13.592931
   5       14.278830
   6       15.035582
 
  0.1176471E+00  0.3747003E-15  0.3742002E-15  0.2306805E-02
   1       -2.648737
   2        2.533292
   3        2.946562
   4       11.765482
   5       13.469012
   6       14.221032
 
  0.1764706E+00  0.4024558E-15  0.3742002E-15  0.2306805E-02
   1       -2.305562
   2        2.848207
   3        3.275870
   4        9.990401
   5       12.775717
   6       13.322234
 
  0.2352941E+00  0.4024558E-15  0.3742002E-15  0.2306805E-02
   1       -1.827226
   2        3.289637
   3        3.724604
   4        8.319820
   5       12.198320
   6       12.367108
 
  0.2941176E+00  0.3885781E-15  0.3742002E-15  0.2306805E-02
   1       -1.215792
   2        3.857470
   3        4.257359
   4        6.793924
   5       11.323366
   6       11.426875
 
  0.3529412E+00  0.3885781E-15  0.3742002E-15  0.2306805E-02
   1       -0.474249
   2        4.551801
   3        4.565258
   4        5.723567
   5        9.966194
   6       10.206074
 
  0.4117647E+00  0.4163336E-15  0.3742002E-15  0.2306805E-02
   1        0.393985
   2        3.661865
   3        5.371890
   4        6.089572
   5        8.633296
   6        9.081754
 
  0.4705882E+00  0.3330669E-15  0.3742002E-15  0.2306805E-02
   1        1.383755
   2        2.485292
   3        6.305866
   4        6.926851
   5        7.442779
   6        8.025800
 
  0.5882353E-01  0.5882353E-01  0.3742002E-15  0.2306805E-02
   1       -2.717559
   2        2.470335
   3        2.880052
   4       12.594031
   5       12.858665
   6       15.672614
 
  0.1176471E+00  0.5882353E-01  0.3742002E-15  0.4613610E-02
   1       -2.442681
   2        2.722229
   3        3.144900
   4       10.896580
   5       11.956183
   6       14.902955
 
  0.1764706E+00  0.5882353E-01  0.3742002E-15  0.4613610E-02
   1       -2.031979
   2        3.100455
   3        3.534967
   4        9.179271
   5       11.247282
   6       13.872494
 
  0.2352941E+00  0.5882353E-01  0.3742002E-15  0.4613610E-02
   1       -1.487088
   2        3.605032
   3        4.032199
   4        7.576066
   5       10.628255
   6       12.244645
 
  0.2941176E+00  0.5882353E-01  0.3742002E-15  0.4613610E-02
   1       -0.810547
   2        4.236191
   3        4.547030
   4        6.183296
   5       10.042667
   6       10.726179
 
  0.3529412E+00  0.5882353E-01  0.3742002E-15  0.4613610E-02
   1       -0.005609
   2        4.265507
   3        4.993722
   4        5.812375
   5        9.330119
   6        9.346003
 
  0.4117647E+00  0.5882353E-01  0.3742002E-15  0.4613610E-02
   1        0.923660
   2        3.117536
   3        5.874558
   4        6.522153
   5        8.064721
   6        8.446272
 
  0.4705882E+00  0.5882353E-01  0.3742002E-15  0.2306805E-02
   1        1.957557
   2        1.983642
   3        6.728838
   4        7.082853
   5        7.284615
   6        7.625748
 
  0.1176471E+00  0.1176471E+00  0.3742002E-15  0.2306805E-02
   1       -2.100361
   2        3.037318
   3        3.470907
   4        9.991718
   5       10.352272
   6       14.576158
 
  0.1764706E+00  0.1176471E+00  0.3742002E-15  0.4613610E-02
   1       -1.623040
   2        3.478805
   3        3.913776
   4        8.470733
   5        9.572185
   6       13.132820
 
  0.2352941E+00  0.1176471E+00  0.3742002E-15  0.4613610E-02
   1       -1.013010
   2        4.046818
   3        4.438015
   4        6.963075
   5        9.030782
   6       11.595843
 
  0.2941176E+00  0.1176471E+00  0.3742002E-15  0.4613610E-02
   1       -0.273034
   2        4.741320
   3        4.744455
   4        5.883460
   5        8.594086
   6       10.148957
 
  0.3529412E+00  0.1176471E+00  0.3742002E-15  0.4613610E-02
   1        0.593198
   2        3.851972
   3        5.561353
   4        6.204657
   5        8.201056
   6        8.821036
 
  0.4117647E+00  0.1176471E+00  0.3742002E-15  0.4613610E-02
   1        1.580464
   2        2.679183
   3        6.494278
   4        6.961924
   5        7.633226
   6        7.697538
 
  0.1764706E+00  0.1764706E+00  0.3742002E-15  0.2306805E-02
   1       -1.080478
   2        3.983700
   3        4.392449
   4        7.715766
   5        8.177714
   6       12.328849
 
  0.2352941E+00  0.1764706E+00  0.3742002E-15  0.4613610E-02
   1       -0.407081
   2        4.615147
   3        4.883147
   4        6.472659
   5        7.598444
   6       11.050592
 
  0.2941176E+00  0.1764706E+00  0.3742002E-15  0.4613610E-02
   1        0.394193
   2        4.636635
   3        5.372692
   4        5.972882
   5        7.341520
   6        9.694296
 
  0.3529412E+00  0.1764706E+00  0.3742002E-15  0.4613610E-02
   1        1.319004
   2        3.501074
   3        6.252727
   4        6.316606
   5        7.398117
   6        8.440521
 
  0.4117647E+00  0.1764706E+00  0.3742002E-15  0.2306805E-02
   1        2.343099
   2        2.377920
   3        6.437080
   4        7.099572
   5        7.468025
   6        7.627100
 
  0.2352941E+00  0.2352941E+00  0.3742002E-15  0.2306805E-02
   1        0.327725
   2        5.151314
   3        5.309749
   4        5.803159
   5        6.856805
   6       10.453926
 
  0.2941176E+00  0.2352941E+00  0.3742002E-15  0.4613610E-02
   1        1.187862
   2        4.417261
   3        5.407176
   4        6.129115
   5        7.162426
   6        9.349299
 
  0.3529412E+00  0.2352941E+00  0.3742002E-15  0.4613610E-02
   1        2.167459
   2        3.257099
   3        5.342491
   4        7.058226
   5        7.763277
   6        8.193280
 
  0.2941176E+00  0.2941176E+00  0.3742002E-15  0.2306805E-02
   1        2.103065
   2        4.249938
   3        4.268123
   4        7.003968
   5        7.769127
   6        8.959506
 
  0.3529412E+00  0.2941176E+00  0.3742002E-15  0.2306805E-02
   1        3.113138
   2        3.152011
   3        4.202806
   4        7.842041
   5        8.173145
   6        8.193436
 
  0.3742002E-15  0.3742002E-15  0.1111111E+00  0.7689350E-03
   1       -2.855753
   2        1.352080
   3        3.727321
   4       14.994589
   5       15.198679
   6       15.198819
 
  0.5882353E-01  0.3816392E-15  0.1111111E+00  0.4613610E-02
   1       -2.786886
   2        1.417618
   3        3.791611
   4       13.628033
   5       14.334443
   6       14.877834
 
  0.1176471E+00  0.3747003E-15  0.1111111E+00  0.4613610E-02
   1       -2.580546
   2        1.613836
   3        3.983795
   4       11.818782
   5       13.526038
   6       14.187245
 
  0.1764706E+00  0.4024558E-15  0.1111111E+00  0.4613610E-02
   1       -2.237660
   2        1.939752
   3        4.300311
   4       10.049992
   5       12.832626
   6       13.181418
 
  0.2352941E+00  0.4024558E-15  0.1111111E+00  0.4613610E-02
   1       -1.759609
   2        2.392958
   3        4.731817
   4        8.385104
   5       11.900653
   6       12.256066
 
  0.2941176E+00  0.3885781E-15  0.1111111E+00  0.4613610E-02
   1       -1.148665
   2        2.968203
   3        5.227006
   4        6.889245
   5       10.492944
   6       11.794626
 
  0.3529412E+00  0.3885781E-15  0.1111111E+00  0.4613610E-02
   1       -0.407648
   2        3.637267
   3        5.091695
   4        6.284125
   5        9.116449
   6       11.072550
 
  0.4117647E+00  0.4163336E-15  0.1111111E+00  0.4613610E-02
   1        0.459838
   2        3.675077
   3        4.671826
   4        6.921345
   5        7.853122
   6        9.960193
 
  0.4705882E+00  0.3330669E-15  0.1111111E+00  0.4613610E-02
   1        1.448328
   2        2.546033
   3        5.540694
   4        6.585584
   5        7.893967
   6        8.882711
 
  0.5882353E-01  0.5882353E-01  0.1111111E+00  0.4613610E-02
   1       -2.649257
   2        1.548533
   3        3.919929
   4       12.637974
   5       12.913293
   6       15.258597
 
  0.1176471E+00  0.5882353E-01  0.1111111E+00  0.9227220E-02
   1       -2.374626
   2        1.809540
   3        4.174283
   4       10.952527
   5       12.005943
   6       14.573341
 
  0.1764706E+00  0.5882353E-01  0.1111111E+00  0.9227220E-02
   1       -1.964176
   2        2.199197
   3        4.549521
   4        9.240556
   5       11.285054
   6       13.064616
 
  0.2352941E+00  0.5882353E-01  0.1111111E+00  0.9227220E-02
   1       -1.419706
   2        2.714144
   3        5.025939
   4        7.648570
   5       10.602050
   6       11.624080
 
  0.2941176E+00  0.5882353E-01  0.1111111E+00  0.9227220E-02
   1       -0.743697
   2        3.343524
   3        5.411617
   4        6.384775
   5        9.682089
   6       10.587144
 
  0.3529412E+00  0.5882353E-01  0.1111111E+00  0.9227220E-02
   1        0.060614
   2        3.955213
   3        4.682044
   4        6.598972
   5        8.463815
   6        9.971382
 
  0.4117647E+00  0.5882353E-01  0.1111111E+00  0.9227220E-02
   1        0.988997
   2        3.170213
   3        5.114473
   4        7.115769
   5        7.528978
   6        9.256319
 
  0.4705882E+00  0.5882353E-01  0.1111111E+00  0.4613610E-02
   1        2.019857
   2        2.047982
   3        6.077299
   4        6.110401
   5        8.319874
   6        8.372773
 
  0.1176471E+00  0.1176471E+00  0.1111111E+00  0.4613610E-02
   1       -2.032465
   2        2.134496
   3        4.488175
   4       10.048546
   5       10.408594
   6       13.960246
 
  0.1764706E+00  0.1176471E+00  0.1111111E+00  0.9227220E-02
   1       -1.555540
   2        2.586335
   3        4.914990
   4        8.533580
   5        9.625007
   6       12.448726
 
  0.2352941E+00  0.1176471E+00  0.1111111E+00  0.9227220E-02
   1       -0.945982
   2        3.159060
   3        5.404749
   4        7.053199
   5        9.067717
   6       10.960200
 
  0.2941176E+00  0.1176471E+00  0.1111111E+00  0.9227220E-02
   1       -0.206584
   2        3.824263
   3        5.280657
   4        6.424886
   5        8.553575
   6        9.660557
 
  0.3529412E+00  0.1176471E+00  0.1111111E+00  0.9227220E-02
   1        0.658900
   2        3.863520
   3        4.857122
   4        7.025918
   5        7.794735
   6        8.845284
 
  0.4117647E+00  0.1176471E+00  0.1111111E+00  0.9227220E-02
   1        1.644871
   2        2.739538
   3        5.712082
   4        6.738277
   5        7.693279
   6        8.545417
 
  0.1764706E+00  0.1764706E+00  0.1111111E+00  0.4613610E-02
   1       -1.013442
   2        3.096849
   3        5.373719
   4        7.774227
   5        8.250072
   6       11.815018
 
  0.2352941E+00  0.1764706E+00  0.1111111E+00  0.9227220E-02
   1       -0.340546
   2        3.718738
   3        5.760074
   4        6.616478
   5        7.690338
   6       10.437098
 
  0.2941176E+00  0.1764706E+00  0.1111111E+00  0.9227220E-02
   1        0.460071
   2        4.319518
   3        5.058566
   4        6.603002
   5        7.511584
   6        9.141898
 
  0.3529412E+00  0.1764706E+00  0.1111111E+00  0.9227220E-02
   1        1.383924
   2        3.552231
   3        5.443324
   4        6.715072
   5        7.479063
   6        8.402479
 
  0.4117647E+00  0.1764706E+00  0.1111111E+00  0.4613610E-02
   1        2.405172
   2        2.441280
   3        6.150982
   4        6.488785
   5        7.053327
   6        8.687449
 
  0.2352941E+00  0.2352941E+00  0.1111111E+00  0.4613610E-02
   1        0.393678
   2        4.354055
   3        5.828907
   4        5.863072
   5        7.279827
   6        9.966563
 
  0.2941176E+00  0.2352941E+00  0.1111111E+00  0.9227220E-02
   1        1.252899
   2        4.421165
   3        5.208824
   4        5.854686
   5        7.739687
   6        8.847284
 
  0.3529412E+00  0.2352941E+00  0.1111111E+00  0.9227220E-02
   1        2.231033
   2        3.316077
   3        5.346728
   4        6.442307
   5        7.403288
   6        8.702132
 
  0.2941176E+00  0.2941176E+00  0.1111111E+00  0.4613610E-02
   1        2.166911
   2        4.286376
   3        4.328910
   4        6.353492
   5        8.047683
   6        8.474514
 
  0.3529412E+00  0.2941176E+00  0.1111111E+00  0.4613610E-02
   1        3.174787
   2        3.212401
   3        4.256273
   4        7.218619
   5        7.370623
   6        8.275228
 
  0.3742002E-15  0.3742002E-15  0.2222222E+00  0.7689350E-03
   1       -2.650869
   2        0.369954
   3        5.064150
   4       13.301479
   5       15.358446
   6       15.358717
 
  0.5882353E-01  0.3816392E-15  0.2222222E+00  0.4613610E-02
   1       -2.582119
   2        0.436439
   3        5.126800
   4       13.240829
   5       13.984787
   6       14.500430
 
  0.1176471E+00  0.3747003E-15  0.2222222E+00  0.4613610E-02
   1       -2.376190
   2        0.635659
   3        5.313794
   4       11.960513
   5       13.537105
   6       13.696951
 
  0.1764706E+00  0.4024558E-15  0.2222222E+00  0.4613610E-02
   1       -2.033917
   2        0.966522
   3        5.620057
   4       10.226491
   5       12.677454
   6       13.005322
 
  0.2352941E+00  0.4024558E-15  0.2222222E+00  0.4613610E-02
   1       -1.557069
   2        1.426789
   3        6.025394
   4        8.584579
   5       11.136691
   6       12.427850
 
  0.2941176E+00  0.3885781E-15  0.2222222E+00  0.4613610E-02
   1       -0.947461
   2        2.013014
   3        6.324916
   4        7.270125
   5        9.643800
   6       11.966778
 
  0.3529412E+00  0.3885781E-15  0.2222222E+00  0.4613610E-02
   1       -0.208171
   2        2.714269
   3        5.364160
   4        7.416711
   5        8.272012
   6       11.621779
 
  0.4117647E+00  0.4163336E-15  0.2222222E+00  0.4613610E-02
   1        0.657014
   2        3.411065
   3        4.205748
   4        6.861494
   5        8.256981
   6       11.032773
 
  0.4705882E+00  0.3330669E-15  0.2222222E+00  0.4613610E-02
   1        1.641277
   2        2.722429
   3        4.635683
   4        5.687606
   5        9.109083
   6       10.061256
 
  0.5882353E-01  0.5882353E-01  0.2222222E+00  0.4613610E-02
   1       -2.444786
   2        0.569442
   3        5.251823
   4       12.688307
   5       13.072472
   6       13.687774
 
  0.1176471E+00  0.5882353E-01  0.2222222E+00  0.9227220E-02
   1       -2.170706
   2        0.834323
   3        5.498640
   4       11.113881
   5       12.142391
   6       13.526042
 
  0.1764706E+00  0.5882353E-01  0.2222222E+00  0.9227220E-02
   1       -1.761139
   2        1.229864
   3        5.858037
   4        9.424797
   5       11.346400
   6       12.299129
 
  0.2352941E+00  0.5882353E-01  0.2222222E+00  0.9227220E-02
   1       -1.217947
   2        1.753474
   3        6.278094
   4        7.879989
   5       10.273401
   6       11.269384
 
  0.2941176E+00  0.5882353E-01  0.2222222E+00  0.9227220E-02
   1       -0.543428
   2        2.399060
   3        6.022733
   4        7.227901
   5        8.929876
   6       10.706510
 
  0.3529412E+00  0.5882353E-01  0.2222222E+00  0.9227220E-02
   1        0.258952
   2        3.139737
   3        4.782199
   4        7.463056
   5        7.948631
   6       10.331349
 
  0.4117647E+00  0.5882353E-01  0.2222222E+00  0.9227220E-02
   1        1.184361
   2        3.291949
   3        4.262166
   4        6.305871
   5        8.632590
   6       10.018997
 
  0.4705882E+00  0.5882353E-01  0.2222222E+00  0.4613610E-02
   1        2.205186
   2        2.238866
   3        5.169179
   4        5.203681
   5        9.251004
   6        9.648189
 
  0.1176471E+00  0.1176471E+00  0.2222222E+00  0.4613610E-02
   1       -1.829250
   2        1.164106
   3        5.800610
   4       10.213189
   5       10.572381
   6       12.996457
 
  0.1764706E+00  0.1176471E+00  0.2222222E+00  0.9227220E-02
   1       -1.353470
   2        1.623041
   3        6.199456
   4        8.721571
   5        9.769794
   6       11.609075
 
  0.2352941E+00  0.1176471E+00  0.2222222E+00  0.9227220E-02
   1       -0.745208
   2        2.207332
   3        6.502922
   4        7.405523
   5        9.108351
   6       10.256551
 
  0.2941176E+00  0.1176471E+00  0.2222222E+00  0.9227220E-02
   1       -0.007586
   2        2.905692
   3        5.552303
   4        7.523721
   5        8.192207
   6        9.424109
 
  0.3529412E+00  0.1176471E+00  0.2222222E+00  0.9227220E-02
   1        0.855530
   2        3.596587
   3        4.398680
   4        7.006450
   5        8.059191
   6        9.219013
 
  0.4117647E+00  0.1176471E+00  0.2222222E+00  0.9227220E-02
   1        1.837094
   2        2.914466
   3        4.818975
   4        5.856029
   5        8.295943
   6        9.562297
 
  0.1764706E+00  0.1764706E+00  0.2222222E+00  0.4613610E-02
   1       -0.812543
   2        2.143041
   3        6.589770
   4        7.948122
   5        8.473347
   6       10.992973
 
  0.2352941E+00  0.1764706E+00  0.2222222E+00  0.9227220E-02
   1       -0.141204
   2        2.783398
   3        6.393837
   4        7.179930
   5        8.024262
   6        9.663960
 
  0.2941176E+00  0.1764706E+00  0.2222222E+00  0.9227220E-02
   1        0.657389
   2        3.514366
   3        5.158635
   4        7.072348
   5        7.831955
   6        8.866378
 
  0.3529412E+00  0.1764706E+00  0.2222222E+00  0.9227220E-02
   1        1.577972
   2        3.667979
   3        4.629448
   4        6.496271
   5        7.305317
   6        9.230144
 
  0.4117647E+00  0.1764706E+00  0.2222222E+00  0.4613610E-02
   1        2.589683
   2        2.629124
   3        5.473110
   4        5.552585
   5        7.181107
   6        9.522036
 
  0.2352941E+00  0.2352941E+00  0.2222222E+00  0.4613610E-02
   1        0.591233
   2        3.466419
   3        6.040707
   4        6.162814
   5        8.113590
   6        9.165211
 
  0.2941176E+00  0.2352941E+00  0.2222222E+00  0.9227220E-02
   1        1.447731
   2        4.133759
   3        4.935382
   4        5.899273
   5        7.689484
   6        8.660651
 
  0.3529412E+00  0.2352941E+00  0.2222222E+00  0.9227220E-02
   1        2.420727
   2        3.486304
   3        5.160915
   4        5.836991
   5        6.698046
   6        8.605222
 
  0.2941176E+00  0.2941176E+00  0.2222222E+00  0.4613610E-02
   1        2.357514
   2        4.342055
   3        4.508935
   4        5.584105
   5        7.431062
   6        7.673075
 
  0.3529412E+00  0.2941176E+00  0.2222222E+00  0.4613610E-02
   1        3.357934
   2        3.390300
   3        4.405654
   4        6.296348
   5        6.607567
   6        7.506697
 
  0.3742002E-15  0.3742002E-15  0.3333333E+00  0.7689350E-03
   1       -2.310370
   2       -0.492406
   3        6.518498
   4       11.499472
   5       15.601526
   6       15.628704
 
  0.5882353E-01  0.3816392E-15  0.3333333E+00  0.4613610E-02
   1       -2.241826
   2       -0.425307
   3        6.579175
   4       11.540159
   5       14.157810
   6       14.774995
 
  0.1176471E+00  0.3747003E-15  0.3333333E+00  0.4613610E-02
   1       -2.036613
   2       -0.224115
   3        6.759437
   4       11.587142
   5       12.451801
   6       13.717897
 
  0.1764706E+00  0.4024558E-15  0.3333333E+00  0.4613610E-02
   1       -1.695607
   2        0.110050
   3        7.049542
   4       10.494316
   5       11.797067
   6       12.310155
 
  0.2352941E+00  0.4024558E-15  0.3333333E+00  0.4613610E-02
   1       -1.220486
   2        0.575558
   3        7.393951
   4        8.931627
   5       10.389398
   6       12.360980
 
  0.2941176E+00  0.3885781E-15  0.3333333E+00  0.4613610E-02
   1       -0.613185
   2        1.169645
   3        7.032198
   4        8.214185
   5        8.935354
   6       12.253455
 
  0.3529412E+00  0.3885781E-15  0.3333333E+00  0.4613610E-02
   1        0.123217
   2        1.886358
   3        5.700370
   4        7.374998
   5        8.882064
   6       11.907950
 
  0.4117647E+00  0.4163336E-15  0.3333333E+00  0.4613610E-02
   1        0.984247
   2        2.700620
   3        4.410033
   4        6.076398
   5        9.590233
   6       11.678097
 
  0.4705882E+00  0.3330669E-15  0.3333333E+00  0.4613610E-02
   1        1.959357
   2        2.966913
   3        3.892241
   4        4.883846
   5       10.389648
   6       11.257813
 
  0.5882353E-01  0.5882353E-01  0.3333333E+00  0.4613610E-02
   1       -2.104968
   2       -0.291171
   3        6.699713
   4       11.601795
   5       13.231420
   6       13.321691
 
  0.1176471E+00  0.5882353E-01  0.3333333E+00  0.9227220E-02
   1       -1.831861
   2       -0.023433
   3        6.936052
   4       11.275230
   5       11.968057
   6       12.346586
 
  0.1764706E+00  0.5882353E-01  0.3333333E+00  0.9227220E-02
   1       -1.423800
   2        0.376418
   3        7.267505
   4        9.723912
   5       11.093878
   6       11.798202
 
  0.2352941E+00  0.5882353E-01  0.3333333E+00  0.9227220E-02
   1       -0.882531
   2        0.906364
   3        7.479804
   4        8.374607
   5        9.633224
   6       11.386016
 
  0.2941176E+00  0.5882353E-01  0.3333333E+00  0.9227220E-02
   1       -0.210670
   2        1.562331
   3        6.426709
   4        8.048271
   5        8.638297
   6       10.986339
 
  0.3529412E+00  0.5882353E-01  0.3333333E+00  0.9227220E-02
   1        0.588291
   2        2.333919
   3        5.083595
   4        6.757929
   5        9.177001
   6       10.717749
 
  0.4117647E+00  0.5882353E-01  0.3333333E+00  0.9227220E-02
   1        1.507967
   2        3.113815
   3        3.937799
   4        5.508773
   5        9.762049
   6       10.674965
 
  0.4705882E+00  0.5882353E-01  0.3333333E+00  0.4613610E-02
   1        2.505866
   2        2.546085
   3        4.364317
   4        4.417310
   5        9.979139
   6       10.890679
 
  0.1176471E+00  0.1176471E+00  0.3333333E+00  0.4613610E-02
   1       -1.491691
   2        0.309918
   3        7.219215
   4       10.461358
   5       10.813201
   6       11.817176
 
  0.1764706E+00  0.1176471E+00  0.3333333E+00  0.9227220E-02
   1       -1.017591
   2        0.774186
   3        7.556849
   4        9.038866
   5        9.913047
   6       10.929728
 
  0.2352941E+00  0.1176471E+00  0.3333333E+00  0.9227220E-02
   1       -0.411685
   2        1.366699
   3        7.215931
   4        8.310866
   5        8.843292
   6       10.091939
 
  0.2941176E+00  0.1176471E+00  0.3333333E+00  0.9227220E-02
   1        0.323002
   2        2.080955
   3        5.885276
   4        7.519236
   5        8.652895
   6        9.801093
 
  0.3529412E+00  0.1176471E+00  0.3333333E+00  0.9227220E-02
   1        1.181783
   2        2.891132
   3        4.600682
   4        6.243679
   5        8.774177
   6       10.009810
 
  0.4117647E+00  0.1176471E+00  0.3333333E+00  0.9227220E-02
   1        2.153826
   2        3.155300
   3        4.084459
   4        5.064983
   5        8.744594
   6       10.243525
 
  0.1764706E+00  0.1764706E+00  0.3333333E+00  0.4613610E-02
   1       -0.478720
   2        1.301320
   3        7.755623
   4        8.226884
   5        8.845752
   6       10.207344
 
  0.2352941E+00  0.1764706E+00  0.3333333E+00  0.9227220E-02
   1        0.189985
   2        1.952925
   3        6.784596
   4        7.698259
   5        8.407520
   6        9.357571
 
  0.2941176E+00  0.1764706E+00  0.3333333E+00  0.9227220E-02
   1        0.984948
   2        2.717922
   3        5.453777
   4        6.950954
   5        7.802901
   6        9.230945
 
  0.3529412E+00  0.1764706E+00  0.3333333E+00  0.9227220E-02
   1        1.899271
   2        3.485038
   3        4.322103
   4        5.831019
   5        7.550425
   6        9.132746
 
  0.4117647E+00  0.1764706E+00  0.3333333E+00  0.4613610E-02
   1        2.888337
   2        2.930256
   3        4.751346
   4        4.756360
   5        7.477760
   6        9.088509
 
  0.2352941E+00  0.2352941E+00  0.3333333E+00  0.4613610E-02
   1        0.919156
   2        2.657666
   3        6.325303
   4        6.487735
   5        8.079470
   6        8.413234
 
  0.2941176E+00  0.2352941E+00  0.3333333E+00  0.9227220E-02
   1        1.770647
   2        3.450570
   3        5.144661
   4        6.076332
   5        7.083532
   6        8.024906
 
  0.3529412E+00  0.2352941E+00  0.3333333E+00  0.9227220E-02
   1        2.732575
   2        3.714895
   3        4.610573
   4        5.464393
   5        6.438955
   6        7.893227
 
  0.2941176E+00  0.2941176E+00  0.3333333E+00  0.4613610E-02
   1        2.671944
   2        4.145226
   3        4.799101
   4        5.248866
   5        6.709796
   6        6.927135
 
  0.3529412E+00  0.2941176E+00  0.3333333E+00  0.4613610E-02
   1        3.652654
   2        3.669873
   3        4.591366
   4        5.496560
   5        5.981452
   6        6.755002
 
  0.3742002E-15  0.3742002E-15  0.4444444E+00  0.7689350E-03
   1       -1.835650
   2       -1.228927
   3        8.081667
   4        9.746617
   5       15.846141
   6       15.855221
 
  0.5882353E-01  0.3816392E-15  0.4444444E+00  0.4613610E-02
   1       -1.767547
   2       -1.161115
   3        8.139665
   4        9.799824
   5       14.506074
   6       14.905799
 
  0.1176471E+00  0.3747003E-15  0.4444444E+00  0.4613610E-02
   1       -1.563278
   2       -0.958255
   3        8.309728
   4        9.949642
   5       12.745251
   6       13.210342
 
  0.1764706E+00  0.4024558E-15  0.4444444E+00  0.4613610E-02
   1       -1.224072
   2       -0.621273
   3        8.569615
   4       10.103974
   5       11.086114
   6       11.567479
 
  0.2352941E+00  0.4024558E-15  0.4444444E+00  0.4613610E-02
   1       -0.751353
   2       -0.151717
   3        8.685133
   4        9.375323
   5        9.861454
   6       10.891741
 
  0.2941176E+00  0.3885781E-15  0.4444444E+00  0.4613610E-02
   1       -0.147246
   2        0.448014
   3        7.553464
   4        8.117821
   5        9.761371
   6       11.255979
 
  0.3529412E+00  0.3885781E-15  0.4444444E+00  0.4613610E-02
   1        0.584791
   2        1.173906
   3        6.147988
   4        6.710749
   5       10.313094
   6       11.729706
 
  0.4117647E+00  0.4163336E-15  0.4444444E+00  0.4613610E-02
   1        1.438870
   2        2.015835
   3        4.832022
   4        5.392768
   5       10.967468
   6       12.079723
 
  0.4705882E+00  0.3330669E-15  0.4444444E+00  0.4613610E-02
   1        2.392087
   2        2.877574
   3        3.727462
   4        4.208068
   5       11.584442
   6       11.965083
 
  0.5882353E-01  0.5882353E-01  0.4444444E+00  0.4613610E-02
   1       -1.631263
   2       -1.025799
   3        8.253909
   4        9.902256
   5       13.497925
   6       13.575427
 
  0.1176471E+00  0.5882353E-01  0.4444444E+00  0.9227220E-02
   1       -1.359588
   2       -0.755898
   3        8.472622
   4       10.079428
   5       11.868522
   6       12.230250
 
  0.1764706E+00  0.5882353E-01  0.4444444E+00  0.9227220E-02
   1       -0.953616
   2       -0.352625
   3        8.737108
   4        9.952473
   5       10.442200
   6       10.906604
 
  0.2352941E+00  0.5882353E-01  0.4444444E+00  0.9227220E-02
   1       -0.415159
   2        0.182082
   3        8.280363
   4        8.850782
   5        9.603394
   6       10.921502
 
  0.2941176E+00  0.5882353E-01  0.4444444E+00  0.9227220E-02
   1        0.252957
   2        0.845070
   3        6.888684
   4        7.449014
   5        9.957883
   6       11.085160
 
  0.3529412E+00  0.5882353E-01  0.4444444E+00  0.9227220E-02
   1        1.046601
   2        1.630672
   3        5.520999
   4        6.082356
   5       10.389516
   6       11.068090
 
  0.4117647E+00  0.5882353E-01  0.4444444E+00  0.9227220E-02
   1        1.955552
   2        2.514713
   3        4.278186
   4        4.826263
   5       10.550320
   6       11.079880
 
  0.4705882E+00  0.5882353E-01  0.4444444E+00  0.4613610E-02
   1        2.874186
   2        2.907737
   3        3.758108
   4        3.797694
   5       10.556294
   6       11.080399
 
  0.1176471E+00  0.1176471E+00  0.4444444E+00  0.4613610E-02
   1       -1.021116
   2       -0.419718
   3        8.720331
   4       10.217308
   5       10.893620
   6       10.994352
 
  0.1764706E+00  0.1176471E+00  0.4444444E+00  0.9227220E-02
   1       -0.549505
   2        0.048735
   3        8.859331
   4        9.489533
   5        9.735871
   6       10.372445
 
  0.2352941E+00  0.1176471E+00  0.4444444E+00  0.9227220E-02
   1        0.053135
   2        0.646934
   3        7.725144
   4        8.267019
   5        9.465328
   6       10.194817
 
  0.2941176E+00  0.1176471E+00  0.4444444E+00  0.9227220E-02
   1        0.783385
   2        1.370772
   3        6.326717
   4        6.877823
   5        9.453690
   6       10.018483
 
  0.3529412E+00  0.1176471E+00  0.4444444E+00  0.9227220E-02
   1        1.634962
   2        2.209662
   3        5.018692
   4        5.572959
   5        9.317006
   6        9.864472
 
  0.4117647E+00  0.1176471E+00  0.4444444E+00  0.9227220E-02
   1        2.584107
   2        3.065083
   3        3.922770
   4        4.397059
   5        9.224316
   6        9.772199
 
  0.1764706E+00  0.1764706E+00  0.4444444E+00  0.4613610E-02
   1       -0.013523
   2        0.580779
   3        8.566473
   4        8.585904
   5        9.090143
   6        9.508323
 
  0.2352941E+00  0.1764706E+00  0.4444444E+00  0.9227220E-02
   1        0.651313
   2        1.240170
   3        7.212570
   4        7.657365
   5        8.520951
   6        8.992424
 
  0.2941176E+00  0.1764706E+00  0.4444444E+00  0.9227220E-02
   1        1.440504
   2        2.020474
   3        5.876547