Automatically generated mesh
     165
Reciprocal lattice
    0.00000000000000    0.00000000000000    0.00000000000000             1
    0.05882352941176    0.00000000000000    0.00000000000000             6
    0.11764705882353    0.00000000000000    0.00000000000000             6
    0.17647058823529    0.00000000000000    0.00000000000000             6
    0.23529411764706    0.00000000000000    0.00000000000000             6
    0.29411764705882    0.00000000000000    0.00000000000000             6
    0.35294117647059    0.00000000000000    0.00000000000000             6
    0.41176470588235    0.00000000000000    0.00000000000000             6
    0.47058823529412    0.00000000000000    0.00000000000000             6
    0.05882352941176    0.05882352941176    0.00000000000000             6
    0.11764705882353    0.05882352941176    0.00000000000000            12
    0.17647058823529    0.05882352941176    0.00000000000000            12
    0.23529411764706    0.05882352941176    0.00000000000000            12
    0.29411764705882    0.05882352941176    0.00000000000000            12
    0.35294117647059    0.05882352941176    0.00000000000000            12
    0.41176470588235    0.05882352941176    0.00000000000000            12
    0.47058823529412    0.05882352941176    0.00000000000000             6
    0.11764705882353    0.11764705882353    0.00000000000000             6
    0.17647058823529    0.11764705882353    0.00000000000000            12
    0.23529411764706    0.11764705882353    0.00000000000000            12
    0.29411764705882    0.11764705882353    0.00000000000000            12
    0.35294117647059    0.11764705882353    0.00000000000000            12
    0.41176470588235    0.11764705882353    0.00000000000000            12
    0.17647058823529    0.17647058823529    0.00000000000000             6
    0.23529411764706    0.17647058823529    0.00000000000000            12
    0.29411764705882    0.17647058823529    0.00000000000000            12
    0.35294117647059    0.17647058823529    0.00000000000000            12
    0.41176470588235    0.17647058823529    0.00000000000000             6
    0.23529411764706    0.23529411764706    0.00000000000000             6
    0.29411764705882    0.23529411764706    0.00000000000000            12
    0.35294117647059    0.23529411764706    0.00000000000000            12
    0.29411764705882    0.29411764705882    0.00000000000000             6
    0.35294117647059    0.29411764705882    0.00000000000000             6
    0.00000000000000    0.00000000000000    0.11111111111111             2
    0.05882352941176    0.00000000000000    0.11111111111111            12
    0.11764705882353    0.00000000000000    0.11111111111111            12
    0.17647058823529    0.00000000000000    0.11111111111111            12
    0.23529411764706    0.00000000000000    0.11111111111111            12
    0.29411764705882    0.00000000000000    0.11111111111111            12
    0.35294117647059    0.00000000000000    0.11111111111111            12
    0.41176470588235    0.00000000000000    0.11111111111111            12
    0.47058823529412    0.00000000000000    0.11111111111111            12
    0.05882352941176    0.05882352941176    0.11111111111111            12
    0.11764705882353    0.05882352941176    0.11111111111111            24
    0.17647058823529    0.05882352941176    0.11111111111111            24
    0.23529411764706    0.05882352941176    0.11111111111111            24
    0.29411764705882    0.05882352941176    0.11111111111111            24
    0.35294117647059    0.05882352941176    0.11111111111111            24
    0.41176470588235    0.05882352941176    0.11111111111111            24
    0.47058823529412    0.05882352941176    0.11111111111111            12
    0.11764705882353    0.11764705882353    0.11111111111111            12
    0.17647058823529    0.11764705882353    0.11111111111111            24
    0.23529411764706    0.11764705882353    0.11111111111111            24
    0.29411764705882    0.11764705882353    0.11111111111111            24
    0.35294117647059    0.11764705882353    0.11111111111111            24
    0.41176470588235    0.11764705882353    0.11111111111111            24
    0.17647058823529    0.17647058823529    0.11111111111111            12
    0.23529411764706    0.17647058823529    0.11111111111111            24
    0.29411764705882    0.17647058823529    0.11111111111111            24
    0.35294117647059    0.17647058823529    0.11111111111111            24
    0.41176470588235    0.17647058823529    0.11111111111111            12
    0.23529411764706    0.23529411764706    0.11111111111111            12
    0.29411764705882    0.23529411764706    0.11111111111111            24
    0.35294117647059    0.23529411764706    0.11111111111111            24
    0.29411764705882    0.29411764705882    0.11111111111111            12
    0.35294117647059    0.29411764705882    0.11111111111111            12
    0.00000000000000    0.00000000000000    0.22222222222222             2
    0.05882352941176    0.00000000000000    0.22222222222222            12
    0.11764705882353    0.00000000000000    0.22222222222222            12
    0.17647058823529    0.00000000000000    0.22222222222222            12
    0.23529411764706    0.00000000000000    0.22222222222222            12
    0.29411764705882    0.00000000000000    0.22222222222222            12
    0.35294117647059    0.00000000000000    0.22222222222222            12
    0.41176470588235    0.00000000000000    0.22222222222222            12
    0.47058823529412    0.00000000000000    0.22222222222222            12
    0.05882352941176    0.05882352941176    0.22222222222222            12
    0.11764705882353    0.05882352941176    0.22222222222222            24
    0.17647058823529    0.05882352941176    0.22222222222222            24
    0.23529411764706    0.05882352941176    0.22222222222222            24
    0.29411764705882    0.05882352941176    0.22222222222222            24
    0.35294117647059    0.05882352941176    0.22222222222222            24
    0.41176470588235    0.05882352941176    0.22222222222222            24
    0.47058823529412    0.05882352941176    0.22222222222222            12
    0.11764705882353    0.11764705882353    0.22222222222222            12
    0.17647058823529    0.11764705882353    0.22222222222222            24
    0.23529411764706    0.11764705882353    0.22222222222222            24
    0.29411764705882    0.11764705882353    0.22222222222222            24
    0.35294117647059    0.11764705882353    0.22222222222222            24
    0.41176470588235    0.11764705882353    0.22222222222222            24
    0.17647058823529    0.17647058823529    0.22222222222222            12
    0.23529411764706    0.17647058823529    0.22222222222222            24
    0.29411764705882    0.17647058823529    0.22222222222222            24
    0.35294117647059    0.17647058823529    0.22222222222222            24
    0.41176470588235    0.17647058823529    0.22222222222222            12
    0.23529411764706    0.23529411764706    0.22222222222222            12
    0.29411764705882    0.23529411764706    0.22222222222222            24
    0.35294117647059    0.23529411764706    0.22222222222222            24
    0.29411764705882    0.29411764705882    0.22222222222222            12
    0.35294117647059    0.29411764705882    0.22222222222222            12
    0.00000000000000    0.00000000000000    0.33333333333333             2
    0.05882352941176    0.00000000000000    0.33333333333333            12
    0.11764705882353    0.00000000000000    0.33333333333333            12
    0.17647058823529    0.00000000000000    0.33333333333333            12
    0.23529411764706    0.00000000000000    0.33333333333333            12
    0.29411764705882    0.00000000000000    0.33333333333333            12
    0.35294117647059    0.00000000000000    0.33333333333333            12
    0.41176470588235    0.00000000000000    0.33333333333333            12
    0.47058823529412    0.00000000000000    0.33333333333333            12
    0.05882352941176    0.05882352941176    0.33333333333333            12
    0.11764705882353    0.05882352941176    0.33333333333333            24
    0.17647058823529    0.05882352941176    0.33333333333333            24
    0.23529411764706    0.05882352941176    0.33333333333333            24
    0.29411764705882    0.05882352941176    0.33333333333333            24
    0.35294117647059    0.05882352941176    0.33333333333333            24
    0.41176470588235    0.05882352941176    0.33333333333333            24
    0.47058823529412    0.05882352941176    0.33333333333333            12
    0.11764705882353    0.11764705882353    0.33333333333333            12
    0.17647058823529    0.11764705882353    0.33333333333333            24
    0.23529411764706    0.11764705882353    0.33333333333333            24
    0.29411764705882    0.11764705882353    0.33333333333333            24
    0.35294117647059    0.11764705882353    0.33333333333333            24
    0.41176470588235    0.11764705882353    0.33333333333333            24
    0.17647058823529    0.17647058823529    0.33333333333333            12
    0.23529411764706    0.17647058823529    0.33333333333333            24
    0.29411764705882    0.17647058823529    0.33333333333333            24
    0.35294117647059    0.17647058823529    0.33333333333333            24
    0.41176470588235    0.17647058823529    0.33333333333333            12
    0.23529411764706    0.23529411764706    0.33333333333333            12
    0.29411764705882    0.23529411764706    0.33333333333333            24
    0.35294117647059    0.23529411764706    0.33333333333333            24
    0.29411764705882    0.29411764705882    0.33333333333333            12
    0.35294117647059    0.29411764705882    0.33333333333333            12
    0.00000000000000    0.00000000000000    0.44444444444444             2
    0.05882352941176    0.00000000000000    0.44444444444444            12
    0.11764705882353    0.00000000000000    0.44444444444444            12
    0.17647058823529    0.00000000000000    0.44444444444444            12
    0.23529411764706    0.00000000000000    0.44444444444444            12
    0.29411764705882    0.00000000000000    0.44444444444444            12
    0.35294117647059    0.00000000000000    0.44444444444444            12
    0.41176470588235    0.00000000000000    0.44444444444444            12
    0.47058823529412    0.00000000000000    0.44444444444444            12
    0.05882352941176    0.05882352941176    0.44444444444444            12
    0.11764705882353    0.05882352941176    0.44444444444444            24
    0.17647058823529    0.05882352941176    0.44444444444444            24
    0.23529411764706    0.05882352941176    0.44444444444444            24
    0.29411764705882    0.05882352941176    0.44444444444444            24
    0.35294117647059    0.05882352941176    0.44444444444444            24
    0.41176470588235    0.05882352941176    0.44444444444444            24
    0.47058823529412    0.05882352941176    0.44444444444444            12
    0.11764705882353    0.11764705882353    0.44444444444444            12
    0.17647058823529    0.11764705882353    0.44444444444444            24
    0.23529411764706    0.11764705882353    0.44444444444444            24
    0.29411764705882    0.11764705882353    0.44444444444444            24
    0.35294117647059    0.11764705882353    0.44444444444444            24
    0.41176470588235    0.11764705882353    0.44444444444444            24
    0.17647058823529    0.17647058823529    0.44444444444444            12
    0.23529411764706    0.17647058823529    0.44444444444444            24
    0.29411764705882    0.17647058823529    0.44444444444444            24
    0.35294117647059    0.17647058823529    0.44444444444444            24
    0.41176470588235    0.17647058823529    0.44444444444444            12
    0.23529411764706    0.23529411764706    0.44444444444444            12
    0.29411764705882    0.23529411764706    0.44444444444444            24
    0.35294117647059    0.23529411764706    0.44444444444444            24
    0.29411764705882    0.29411764705882    0.44444444444444            12
    0.35294117647059    0.29411764705882    0.44444444444444            12
