unknown system                          
           1
     3.193225    0.000000    0.000000
    -1.596613    2.765414    0.000000
     0.000000    0.000000    5.185384
   Mg
   2
unknown system                          
           1
     3.189032    0.000000    0.000000
    -1.594517    2.761783    0.000000
     0.000000    0.000000    5.196666
   Mg
   2
Direct configuration=     1
   0.33333333  0.66666667  0.25000000
   0.66666667  0.33333333  0.75000000
unknown system                          
           1
     3.179575    0.000000    0.000000
    -1.589788    2.753593    0.000000
     0.000000    0.000000    5.222113
   Mg
   2
Direct configuration=     2
   0.33333333  0.66666667  0.25000000
   0.66666667  0.33333333  0.75000000
unknown system                          
           1
     3.179575    0.000000    0.000000
    -1.589788    2.753593    0.000000
     0.000000    0.000000    5.222113
   Mg
   2
Direct configuration=     3
   0.33333333  0.66666667  0.25000000
   0.66666667  0.33333333  0.75000000
