Automatically generated mesh
     196
Reciprocal lattice
    0.00000000000000    0.00000000000000    0.00000000000000             1
    0.08333333333333    0.00000000000000    0.00000000000000             4
    0.16666666666667    0.00000000000000    0.00000000000000             4
    0.25000000000000    0.00000000000000    0.00000000000000             4
    0.33333333333333    0.00000000000000    0.00000000000000             4
    0.41666666666667    0.00000000000000    0.00000000000000             4
    0.50000000000000    0.00000000000000    0.00000000000000             2
    0.08333333333333    0.08333333333333    0.00000000000000             4
    0.16666666666667    0.08333333333333    0.00000000000000             8
    0.25000000000000    0.08333333333333    0.00000000000000             8
    0.33333333333333    0.08333333333333    0.00000000000000             8
    0.41666666666667    0.08333333333333    0.00000000000000             8
    0.50000000000000    0.08333333333333    0.00000000000000             4
    0.16666666666667    0.16666666666667    0.00000000000000             4
    0.25000000000000    0.16666666666667    0.00000000000000             8
    0.33333333333333    0.16666666666667    0.00000000000000             8
    0.41666666666667    0.16666666666667    0.00000000000000             8
    0.50000000000000    0.16666666666667    0.00000000000000             4
    0.25000000000000    0.25000000000000    0.00000000000000             4
    0.33333333333333    0.25000000000000    0.00000000000000             8
    0.41666666666667    0.25000000000000    0.00000000000000             8
    0.50000000000000    0.25000000000000    0.00000000000000             4
    0.33333333333333    0.33333333333333    0.00000000000000             4
    0.41666666666667    0.33333333333333    0.00000000000000             8
    0.50000000000000    0.33333333333333    0.00000000000000             4
    0.41666666666667    0.41666666666667    0.00000000000000             4
    0.50000000000000    0.41666666666667    0.00000000000000             4
    0.50000000000000    0.50000000000000    0.00000000000000             1
    0.00000000000000    0.00000000000000    0.08333333333333             2
    0.08333333333333    0.00000000000000    0.08333333333333             8
    0.16666666666667    0.00000000000000    0.08333333333333             8
    0.25000000000000    0.00000000000000    0.08333333333333             8
    0.33333333333333    0.00000000000000    0.08333333333333             8
    0.41666666666667    0.00000000000000    0.08333333333333             8
    0.50000000000000    0.00000000000000    0.08333333333333             4
    0.08333333333333    0.08333333333333    0.08333333333333             8
    0.16666666666667    0.08333333333333    0.08333333333333            16
    0.25000000000000    0.08333333333333    0.08333333333333            16
    0.33333333333333    0.08333333333333    0.08333333333333            16
    0.41666666666667    0.08333333333333    0.08333333333333            16
    0.50000000000000    0.08333333333333    0.08333333333333             8
    0.16666666666667    0.16666666666667    0.08333333333333             8
    0.25000000000000    0.16666666666667    0.08333333333333            16
    0.33333333333333    0.16666666666667    0.08333333333333            16
    0.41666666666667    0.16666666666667    0.08333333333333            16
    0.50000000000000    0.16666666666667    0.08333333333333             8
    0.25000000000000    0.25000000000000    0.08333333333333             8
    0.33333333333333    0.25000000000000    0.08333333333333            16
    0.41666666666667    0.25000000000000    0.08333333333333            16
    0.50000000000000    0.25000000000000    0.08333333333333             8
    0.33333333333333    0.33333333333333    0.08333333333333             8
    0.41666666666667    0.33333333333333    0.08333333333333            16
    0.50000000000000    0.33333333333333    0.08333333333333             8
    0.41666666666667    0.41666666666667    0.08333333333333             8
    0.50000000000000    0.41666666666667    0.08333333333333             8
    0.50000000000000    0.50000000000000    0.08333333333333             2
    0.00000000000000    0.00000000000000    0.16666666666667             2
    0.08333333333333    0.00000000000000    0.16666666666667             8
    0.16666666666667    0.00000000000000    0.16666666666667             8
    0.25000000000000    0.00000000000000    0.16666666666667             8
    0.33333333333333    0.00000000000000    0.16666666666667             8
    0.41666666666667    0.00000000000000    0.16666666666667             8
    0.50000000000000    0.00000000000000    0.16666666666667             4
    0.08333333333333    0.08333333333333    0.16666666666667             8
    0.16666666666667    0.08333333333333    0.16666666666667            16
    0.25000000000000    0.08333333333333    0.16666666666667            16
    0.33333333333333    0.08333333333333    0.16666666666667            16
    0.41666666666667    0.08333333333333    0.16666666666667            16
    0.50000000000000    0.08333333333333    0.16666666666667             8
    0.16666666666667    0.16666666666667    0.16666666666667             8
    0.25000000000000    0.16666666666667    0.16666666666667            16
    0.33333333333333    0.16666666666667    0.16666666666667            16
    0.41666666666667    0.16666666666667    0.16666666666667            16
    0.50000000000000    0.16666666666667    0.16666666666667             8
    0.25000000000000    0.25000000000000    0.16666666666667             8
    0.33333333333333    0.25000000000000    0.16666666666667            16
    0.41666666666667    0.25000000000000    0.16666666666667            16
    0.50000000000000    0.25000000000000    0.16666666666667             8
    0.33333333333333    0.33333333333333    0.16666666666667             8
    0.41666666666667    0.33333333333333    0.16666666666667            16
    0.50000000000000    0.33333333333333    0.16666666666667             8
    0.41666666666667    0.41666666666667    0.16666666666667             8
    0.50000000000000    0.41666666666667    0.16666666666667             8
    0.50000000000000    0.50000000000000    0.16666666666667             2
    0.00000000000000    0.00000000000000    0.25000000000000             2
    0.08333333333333    0.00000000000000    0.25000000000000             8
    0.16666666666667    0.00000000000000    0.25000000000000             8
    0.25000000000000    0.00000000000000    0.25000000000000             8
    0.33333333333333    0.00000000000000    0.25000000000000             8
    0.41666666666667    0.00000000000000    0.25000000000000             8
    0.50000000000000    0.00000000000000    0.25000000000000             4
    0.08333333333333    0.08333333333333    0.25000000000000             8
    0.16666666666667    0.08333333333333    0.25000000000000            16
    0.25000000000000    0.08333333333333    0.25000000000000            16
    0.33333333333333    0.08333333333333    0.25000000000000            16
    0.41666666666667    0.08333333333333    0.25000000000000            16
    0.50000000000000    0.08333333333333    0.25000000000000             8
    0.16666666666667    0.16666666666667    0.25000000000000             8
    0.25000000000000    0.16666666666667    0.25000000000000            16
    0.33333333333333    0.16666666666667    0.25000000000000            16
    0.41666666666667    0.16666666666667    0.25000000000000            16
    0.50000000000000    0.16666666666667    0.25000000000000             8
    0.25000000000000    0.25000000000000    0.25000000000000             8
    0.33333333333333    0.25000000000000    0.25000000000000            16
    0.41666666666667    0.25000000000000    0.25000000000000            16
    0.50000000000000    0.25000000000000    0.25000000000000             8
    0.33333333333333    0.33333333333333    0.25000000000000             8
    0.41666666666667    0.33333333333333    0.25000000000000            16
    0.50000000000000    0.33333333333333    0.25000000000000             8
    0.41666666666667    0.41666666666667    0.25000000000000             8
    0.50000000000000    0.41666666666667    0.25000000000000             8
    0.50000000000000    0.50000000000000    0.25000000000000             2
    0.00000000000000    0.00000000000000    0.33333333333333             2
    0.08333333333333    0.00000000000000    0.33333333333333             8
    0.16666666666667    0.00000000000000    0.33333333333333             8
    0.25000000000000    0.00000000000000    0.33333333333333             8
    0.33333333333333    0.00000000000000    0.33333333333333             8
    0.41666666666667    0.00000000000000    0.33333333333333             8
    0.50000000000000    0.00000000000000    0.33333333333333             4
    0.08333333333333    0.08333333333333    0.33333333333333             8
    0.16666666666667    0.08333333333333    0.33333333333333            16
    0.25000000000000    0.08333333333333    0.33333333333333            16
    0.33333333333333    0.08333333333333    0.33333333333333            16
    0.41666666666667    0.08333333333333    0.33333333333333            16
    0.50000000000000    0.08333333333333    0.33333333333333             8
    0.16666666666667    0.16666666666667    0.33333333333333             8
    0.25000000000000    0.16666666666667    0.33333333333333            16
    0.33333333333333    0.16666666666667    0.33333333333333            16
    0.41666666666667    0.16666666666667    0.33333333333333            16
    0.50000000000000    0.16666666666667    0.33333333333333             8
    0.25000000000000    0.25000000000000    0.33333333333333             8
    0.33333333333333    0.25000000000000    0.33333333333333            16
    0.41666666666667    0.25000000000000    0.33333333333333            16
    0.50000000000000    0.25000000000000    0.33333333333333             8
    0.33333333333333    0.33333333333333    0.33333333333333             8
    0.41666666666667    0.33333333333333    0.33333333333333            16
    0.50000000000000    0.33333333333333    0.33333333333333             8
    0.41666666666667    0.41666666666667    0.33333333333333             8
    0.50000000000000    0.41666666666667    0.33333333333333             8
    0.50000000000000    0.50000000000000    0.33333333333333             2
    0.00000000000000    0.00000000000000    0.41666666666667             2
    0.08333333333333    0.00000000000000    0.41666666666667             8
    0.16666666666667    0.00000000000000    0.41666666666667             8
    0.25000000000000    0.00000000000000    0.41666666666667             8
    0.33333333333333    0.00000000000000    0.41666666666667             8
    0.41666666666667    0.00000000000000    0.41666666666667             8
    0.50000000000000    0.00000000000000    0.41666666666667             4
    0.08333333333333    0.08333333333333    0.41666666666667             8
    0.16666666666667    0.08333333333333    0.41666666666667            16
    0.25000000000000    0.08333333333333    0.41666666666667            16
    0.33333333333333    0.08333333333333    0.41666666666667            16
    0.41666666666667    0.08333333333333    0.41666666666667            16
    0.50000000000000    0.08333333333333    0.41666666666667             8
    0.16666666666667    0.16666666666667    0.41666666666667             8
    0.25000000000000    0.16666666666667    0.41666666666667            16
    0.33333333333333    0.16666666666667    0.41666666666667            16
    0.41666666666667    0.16666666666667    0.41666666666667            16
    0.50000000000000    0.16666666666667    0.41666666666667             8
    0.25000000000000    0.25000000000000    0.41666666666667             8
    0.33333333333333    0.25000000000000    0.41666666666667            16
    0.41666666666667    0.25000000000000    0.41666666666667            16
    0.50000000000000    0.25000000000000    0.41666666666667             8
    0.33333333333333    0.33333333333333    0.41666666666667             8
    0.41666666666667    0.33333333333333    0.41666666666667            16
    0.50000000000000    0.33333333333333    0.41666666666667             8
    0.41666666666667    0.41666666666667    0.41666666666667             8
    0.50000000000000    0.41666666666667    0.41666666666667             8
    0.50000000000000    0.50000000000000    0.41666666666667             2
    0.00000000000000    0.00000000000000    0.50000000000000             1
    0.08333333333333    0.00000000000000    0.50000000000000             4
    0.16666666666667    0.00000000000000    0.50000000000000             4
    0.25000000000000    0.00000000000000    0.50000000000000             4
    0.33333333333333    0.00000000000000    0.50000000000000             4
    0.41666666666667    0.00000000000000    0.50000000000000             4
    0.50000000000000    0.00000000000000    0.50000000000000             2
    0.08333333333333    0.08333333333333    0.50000000000000             4
    0.16666666666667    0.08333333333333    0.50000000000000             8
    0.25000000000000    0.08333333333333    0.50000000000000             8
    0.33333333333333    0.08333333333333    0.50000000000000             8
    0.41666666666667    0.08333333333333    0.50000000000000             8
    0.50000000000000    0.08333333333333    0.50000000000000             4
    0.16666666666667    0.16666666666667    0.50000000000000             4
    0.25000000000000    0.16666666666667    0.50000000000000             8
    0.33333333333333    0.16666666666667    0.50000000000000             8
    0.41666666666667    0.16666666666667    0.50000000000000             8
    0.50000000000000    0.16666666666667    0.50000000000000             4
    0.25000000000000    0.25000000000000    0.50000000000000             4
    0.33333333333333    0.25000000000000    0.50000000000000             8
    0.41666666666667    0.25000000000000    0.50000000000000             8
    0.50000000000000    0.25000000000000    0.50000000000000             4
    0.33333333333333    0.33333333333333    0.50000000000000             4
    0.41666666666667    0.33333333333333    0.50000000000000             8
    0.50000000000000    0.33333333333333    0.50000000000000             4
    0.41666666666667    0.41666666666667    0.50000000000000             4
    0.50000000000000    0.41666666666667    0.50000000000000             4
    0.50000000000000    0.50000000000000    0.50000000000000             1
