unknown system                          
           1
     4.943189    0.000000    0.000000
     0.000000    4.943189    0.000000
     0.000000    0.000000    4.824569
   Hf   O    Pu
   1   3   1
unknown system                          
           1
     4.825506    0.000000    0.000000
     0.000000    4.825506    0.000000
     0.000000    0.000000    6.453105
   Hf   O    Pu
   1   3   1
Direct configuration=     1
   0.49999908  0.49999908  0.77546414
   0.49999908  0.49999908  0.54005243
   0.49999908  0.00000000  0.70473243
   0.00000000  0.49999908  0.70473243
   0.00000000  0.00000000  0.17501876
unknown system                          
           1
     4.924944    0.000000    0.000000
     0.000000    4.924944    0.000000
     0.000000    0.000000    5.077052
   Hf   O    Pu
   1   3   1
Direct configuration=     2
   0.49999908  0.49999908  0.10024646
   0.49999908  0.49999908  0.21076827
   0.49999908  0.00000000  0.70743145
   0.00000000  0.49999908  0.70743145
   0.00000000  0.00000000  0.17412256
unknown system                          
           1
     4.925379    0.000000    0.000000
     0.000000    4.925379    0.000000
     0.000000    0.000000    5.071027
   Hf   O    Pu
   1   3   1
Direct configuration=     3
   0.49999908  0.49999908 -0.10492639
   0.49999908  0.49999908  0.41878504
   0.49999908  0.00000000  0.70572642
   0.00000000  0.49999908  0.70572642
   0.00000000  0.00000000  0.17468871
unknown system                          
           1
     4.934284    0.000000    0.000000
     0.000000    4.934284    0.000000
     0.000000    0.000000    4.947798
   Hf   O    Pu
   1   3   1
Direct configuration=     4
   0.49999908  0.49999908 -0.10606829
   0.49999908  0.49999908  0.41994277
   0.49999908  0.00000000  0.70571693
   0.00000000  0.49999908  0.70571693
   0.00000000  0.00000000  0.17469186
unknown system                          
           1
     4.938737    0.000000    0.000000
     0.000000    4.938737    0.000000
     0.000000    0.000000    4.886183
   Hf   O    Pu
   1   3   1
Direct configuration=     5
   0.49999908  0.49999908 -0.12944967
   0.49999908  0.49999908  0.44364824
   0.49999908  0.00000000  0.70552262
   0.00000000  0.49999908  0.70552262
   0.00000000  0.00000000  0.17475638
unknown system                          
           1
     4.940963    0.000000    0.000000
     0.000000    4.940963    0.000000
     0.000000    0.000000    4.855376
   Hf   O    Pu
   1   3   1
Direct configuration=     6
   0.49999908  0.49999908 -0.14143153
   0.49999908  0.49999908  0.45579618
   0.49999908  0.00000000  0.70542305
   0.00000000  0.49999908  0.70542305
   0.00000000  0.00000000  0.17478944
unknown system                          
           1
     4.942076    0.000000    0.000000
     0.000000    4.942076    0.000000
     0.000000    0.000000    4.839973
   Hf   O    Pu
   1   3   1
Direct configuration=     7
   0.49999908  0.49999908 -0.14749800
   0.49999908  0.49999908  0.46194674
   0.49999908  0.00000000  0.70537264
   0.00000000  0.49999908  0.70537264
   0.00000000  0.00000000  0.17480618
unknown system                          
           1
     4.942632    0.000000    0.000000
     0.000000    4.942632    0.000000
     0.000000    0.000000    4.832271
   Hf   O    Pu
   1   3   1
Direct configuration=     8
   0.49999908  0.49999908 -0.15055049
   0.49999908  0.49999908  0.46504154
   0.49999908  0.00000000  0.70534727
   0.00000000  0.49999908  0.70534727
   0.00000000  0.00000000  0.17481460
unknown system                          
           1
     4.942911    0.000000    0.000000
     0.000000    4.942911    0.000000
     0.000000    0.000000    4.828420
   Hf   O    Pu
   1   3   1
Direct configuration=     9
   0.49999908  0.49999908 -0.15208158
   0.49999908  0.49999908  0.46659386
   0.49999908  0.00000000  0.70533455
   0.00000000  0.49999908  0.70533455
   0.00000000  0.00000000  0.17481883
unknown system                          
           1
     4.943050    0.000000    0.000000
     0.000000    4.943050    0.000000
     0.000000    0.000000    4.826494
   Hf   O    Pu
   1   3   1
Direct configuration=    10
   0.49999908  0.49999908 -0.15284835
   0.49999908  0.49999908  0.46737126
   0.49999908  0.00000000  0.70532817
   0.00000000  0.49999908  0.70532817
   0.00000000  0.00000000  0.17482094
unknown system                          
           1
     4.943119    0.000000    0.000000
     0.000000    4.943119    0.000000
     0.000000    0.000000    4.825532
   Hf   O    Pu
   1   3   1
Direct configuration=    11
   0.49999908  0.49999908 -0.15323204
   0.49999908  0.49999908  0.46776027
   0.49999908  0.00000000  0.70532498
   0.00000000  0.49999908  0.70532498
   0.00000000  0.00000000  0.17482200
unknown system                          
           1
     4.943154    0.000000    0.000000
     0.000000    4.943154    0.000000
     0.000000    0.000000    4.825050
   Hf   O    Pu
   1   3   1
Direct configuration=    12
   0.49999908  0.49999908 -0.15342397
   0.49999908  0.49999908  0.46795485
   0.49999908  0.00000000  0.70532339
   0.00000000  0.49999908  0.70532339
   0.00000000  0.00000000  0.17482253
unknown system                          
           1
     4.943172    0.000000    0.000000
     0.000000    4.943172    0.000000
     0.000000    0.000000    4.824810
   Hf   O    Pu
   1   3   1
Direct configuration=    13
   0.49999908  0.49999908 -0.15351995
   0.49999908  0.49999908  0.46805216
   0.49999908  0.00000000  0.70532259
   0.00000000  0.49999908  0.70532259
   0.00000000  0.00000000  0.17482280
unknown system                          
           1
     4.943180    0.000000    0.000000
     0.000000    4.943180    0.000000
     0.000000    0.000000    4.824689
   Hf   O    Pu
   1   3   1
Direct configuration=    14
   0.49999908  0.49999908 -0.15356794
   0.49999908  0.49999908  0.46810082
   0.49999908  0.00000000  0.70532219
   0.00000000  0.49999908  0.70532219
   0.00000000  0.00000000  0.17482293
unknown system                          
           1
     4.843351    0.000000    0.000000
     0.000000    4.843351    0.000000
     0.000000    0.000000    4.709307
   Hf   O    Pu
   1   3   1
Direct configuration=    15
   0.49999908  0.49999908 -0.15359194
   0.49999908  0.49999908  0.46812515
   0.49999908  0.00000000  0.70532199
   0.00000000  0.49999908  0.70532199
   0.00000000  0.00000000  0.17482299
unknown system                          
           1
     4.543864    0.000000    0.000000
     0.000000    4.543864    0.000000
     0.000000    0.000000    4.363162
   Hf   O    Pu
   1   3   1
Direct configuration=    16
   0.49999908  0.49999908 -0.15588848
   0.49999908  0.49999908  0.45942831
   0.49999908  0.00000000  0.71069407
   0.00000000  0.49999908  0.71069407
   0.00000000  0.00000000  0.17507222
