  16  16   1   0
  0.1508663E+02  0.5707918E-09  0.5707918E-09  0.7408951E-09  0.5000000E-15
  1.000000000000000E-004
  CAR 
 unknown system                          
     23.06638352    -14.41780262  301      9.00317318      1.00000000
    -14.418  0.0000E+00  0.0000E+00  0.0000E+00  0.0000E+00
    -14.293  0.0000E+00  0.0000E+00  0.0000E+00  0.0000E+00
    -14.168  0.0000E+00  0.0000E+00  0.0000E+00  0.0000E+00
    -14.043  0.0000E+00  0.0000E+00  0.0000E+00  0.0000E+00
    -13.918  0.0000E+00  0.0000E+00  0.0000E+00  0.0000E+00
    -13.793  0.0000E+00  0.0000E+00  0.0000E+00  0.0000E+00
    -13.668  0.0000E+00  0.0000E+00  0.0000E+00  0.0000E+00
    -13.543  0.0000E+00  0.0000E+00  0.0000E+00  0.0000E+00
    -13.418  0.0000E+00  0.0000E+00  0.0000E+00  0.0000E+00
    -13.293  0.0000E+00  0.0000E+00  0.0000E+00  0.0000E+00
    -13.168  0.0000E+00  0.0000E+00  0.0000E+00  0.0000E+00
    -13.043  0.0000E+00  0.0000E+00  0.0000E+00  0.0000E+00
    -12.918  0.0000E+00  0.0000E+00  0.0000E+00  0.0000E+00
    -12.793  0.0000E+00  0.0000E+00  0.0000E+00  0.0000E+00
    -12.669  0.0000E+00  0.0000E+00  0.0000E+00  0.0000E+00
    -12.544  0.0000E+00  0.0000E+00  0.0000E+00  0.0000E+00
    -12.419  0.0000E+00  0.0000E+00  0.0000E+00  0.0000E+00
    -12.294  0.0000E+00  0.0000E+00  0.2000E+02  0.2000E+02
    -12.169  0.0000E+00  0.0000E+00  0.2000E+02  0.2000E+02
    -12.044  0.0000E+00  0.0000E+00  0.2000E+02  0.2000E+02
    -11.919  0.0000E+00  0.0000E+00  0.2000E+02  0.2000E+02
    -11.794  0.0000E+00  0.0000E+00  0.2000E+02  0.2000E+02
    -11.669  0.0000E+00  0.0000E+00  0.2000E+02  0.2000E+02
    -11.544  0.0000E+00  0.0000E+00  0.2000E+02  0.2000E+02
    -11.419  0.0000E+00  0.0000E+00  0.2000E+02  0.2000E+02
    -11.294  0.0000E+00  0.0000E+00  0.2000E+02  0.2000E+02
    -11.169  0.0000E+00  0.0000E+00  0.2000E+02  0.2000E+02
    -11.044  0.0000E+00  0.0000E+00  0.2000E+02  0.2000E+02
    -10.919  0.0000E+00  0.0000E+00  0.2000E+02  0.2000E+02
    -10.794  0.0000E+00  0.0000E+00  0.2000E+02  0.2000E+02
    -10.669  0.0000E+00  0.0000E+00  0.2000E+02  0.2000E+02
    -10.544  0.0000E+00  0.0000E+00  0.2000E+02  0.2000E+02
    -10.419  0.0000E+00  0.0000E+00  0.2000E+02  0.2000E+02
    -10.295  0.0000E+00  0.0000E+00  0.2000E+02  0.2000E+02
    -10.170  0.0000E+00  0.0000E+00  0.2000E+02  0.2000E+02
    -10.045  0.0000E+00  0.0000E+00  0.2000E+02  0.2000E+02
     -9.920  0.0000E+00  0.0000E+00  0.2000E+02  0.2000E+02
     -9.795  0.0000E+00  0.0000E+00  0.2000E+02  0.2000E+02
     -9.670  0.0000E+00  0.0000E+00  0.2000E+02  0.2000E+02
     -9.545  0.0000E+00  0.0000E+00  0.2000E+02  0.2000E+02
     -9.420  0.0000E+00  0.0000E+00  0.2000E+02  0.2000E+02
     -9.295  0.0000E+00  0.0000E+00  0.2000E+02  0.2000E+02
     -9.170  0.0000E+00  0.0000E+00  0.2000E+02  0.2000E+02
     -9.045  0.0000E+00  0.0000E+00  0.2000E+02  0.2000E+02
     -8.920  0.0000E+00  0.0000E+00  0.2000E+02  0.2000E+02
     -8.795  0.0000E+00  0.0000E+00  0.2000E+02  0.2000E+02
     -8.670  0.0000E+00  0.0000E+00  0.2000E+02  0.2000E+02
     -8.545  0.0000E+00  0.0000E+00  0.2000E+02  0.2000E+02
     -8.420  0.0000E+00  0.0000E+00  0.2000E+02  0.2000E+02
     -8.295  0.0000E+00  0.0000E+00  0.2000E+02  0.2000E+02
     -8.170  0.0000E+00  0.0000E+00  0.2000E+02  0.2000E+02
     -8.045  0.0000E+00  0.0000E+00  0.2000E+02  0.2000E+02
     -7.921  0.0000E+00  0.0000E+00  0.2000E+02  0.2000E+02
     -7.796  0.0000E+00  0.0000E+00  0.2000E+02  0.2000E+02
     -7.671  0.0000E+00  0.0000E+00  0.2000E+02  0.2000E+02
     -7.546  0.0000E+00  0.0000E+00  0.2000E+02  0.2000E+02
     -7.421  0.0000E+00  0.0000E+00  0.2000E+02  0.2000E+02
     -7.296  0.0000E+00  0.0000E+00  0.2000E+02  0.2000E+02
     -7.171  0.0000E+00  0.0000E+00  0.2000E+02  0.2000E+02
     -7.046  0.0000E+00  0.0000E+00  0.2000E+02  0.2000E+02
     -6.921  0.0000E+00  0.0000E+00  0.2000E+02  0.2000E+02
     -6.796  0.0000E+00  0.0000E+00  0.2000E+02  0.2000E+02
     -6.671  0.0000E+00  0.0000E+00  0.2000E+02  0.2000E+02
     -6.546  0.0000E+00  0.0000E+00  0.2000E+02  0.2000E+02
     -6.421  0.0000E+00  0.0000E+00  0.2000E+02  0.2000E+02
     -6.296  0.0000E+00  0.0000E+00  0.2000E+02  0.2000E+02
     -6.171  0.0000E+00  0.0000E+00  0.2000E+02  0.2000E+02
     -6.046  0.0000E+00  0.0000E+00  0.2000E+02  0.2000E+02
     -5.921  0.0000E+00  0.0000E+00  0.2000E+02  0.2000E+02
     -5.796  0.0000E+00  0.0000E+00  0.2000E+02  0.2000E+02
     -5.671  0.0000E+00  0.0000E+00  0.2000E+02  0.2000E+02
     -5.547  0.0000E+00  0.0000E+00  0.2000E+02  0.2000E+02
     -5.422  0.0000E+00  0.0000E+00  0.2000E+02  0.2000E+02
     -5.297  0.0000E+00  0.0000E+00  0.2000E+02  0.2000E+02
     -5.172  0.0000E+00  0.0000E+00  0.2000E+02  0.2000E+02
     -5.047  0.0000E+00  0.0000E+00  0.2000E+02  0.2000E+02
     -4.922  0.0000E+00  0.0000E+00  0.2000E+02  0.2000E+02
     -4.797  0.0000E+00  0.0000E+00  0.2000E+02  0.2000E+02
     -4.672  0.0000E+00  0.0000E+00  0.2000E+02  0.2000E+02
     -4.547  0.0000E+00  0.0000E+00  0.2000E+02  0.2000E+02
     -4.422  0.0000E+00  0.0000E+00  0.2000E+02  0.2000E+02
     -4.297  0.0000E+00  0.0000E+00  0.2000E+02  0.2000E+02
     -4.172  0.0000E+00  0.0000E+00  0.2000E+02  0.2000E+02
     -4.047  0.0000E+00  0.0000E+00  0.2000E+02  0.2000E+02
     -3.922  0.0000E+00  0.0000E+00  0.2000E+02  0.2000E+02
     -3.797  0.0000E+00  0.0000E+00  0.2000E+02  0.2000E+02
     -3.672  0.0000E+00  0.0000E+00  0.2000E+02  0.2000E+02
     -3.547  0.0000E+00  0.0000E+00  0.2000E+02  0.2000E+02
     -3.422  0.0000E+00  0.0000E+00  0.2000E+02  0.2000E+02
     -3.297  0.0000E+00  0.0000E+00  0.2000E+02  0.2000E+02
     -3.173  0.0000E+00  0.0000E+00  0.2000E+02  0.2000E+02
     -3.048  0.0000E+00  0.0000E+00  0.2000E+02  0.2000E+02
     -2.923  0.0000E+00  0.0000E+00  0.2000E+02  0.2000E+02
     -2.798  0.0000E+00  0.0000E+00  0.2000E+02  0.2000E+02
     -2.673  0.0000E+00  0.0000E+00  0.2000E+02  0.2000E+02
     -2.548  0.0000E+00  0.0000E+00  0.2000E+02  0.2000E+02
     -2.423  0.0000E+00  0.0000E+00  0.2000E+02  0.2000E+02
     -2.298  0.0000E+00  0.0000E+00  0.2000E+02  0.2000E+02
     -2.173  0.0000E+00  0.0000E+00  0.2000E+02  0.2000E+02
     -2.048  0.0000E+00  0.0000E+00  0.2000E+02  0.2000E+02
     -1.923  0.0000E+00  0.0000E+00  0.2000E+02  0.2000E+02
     -1.798  0.0000E+00  0.0000E+00  0.2000E+02  0.2000E+02
     -1.673  0.0000E+00  0.0000E+00  0.2000E+02  0.2000E+02
     -1.548  0.8839E-03  0.0000E+00  0.2000E+02  0.2000E+02
     -1.423  0.2774E+00  0.1299E+00  0.2002E+02  0.2000E+02
     -1.298  0.3913E+00  0.3160E+00  0.2006E+02  0.2004E+02
     -1.173  0.5177E+00  0.4915E+00  0.2011E+02  0.2009E+02
     -1.048  0.6228E+00  0.5777E+00  0.2019E+02  0.2015E+02
     -0.923  0.7450E+00  0.6937E+00  0.2027E+02  0.2023E+02
     -0.799  0.8592E+00  0.8235E+00  0.2037E+02  0.2033E+02
     -0.674  0.9748E+00  0.9379E+00  0.2049E+02  0.2044E+02
     -0.549  0.1129E+01  0.1079E+01  0.2062E+02  0.2056E+02
     -0.424  0.1306E+01  0.1248E+01  0.2077E+02  0.2071E+02
     -0.299  0.1636E+01  0.1483E+01  0.2095E+02  0.2088E+02
     -0.174  0.1985E+01  0.1894E+01  0.2118E+02  0.2109E+02
     -0.049  0.2276E+01  0.2203E+01  0.2145E+02  0.2134E+02
      0.076  0.2647E+01  0.2799E+01  0.2177E+02  0.2166E+02
      0.201  0.2978E+01  0.2938E+01  0.2213E+02  0.2201E+02
      0.326  0.6231E+01  0.6341E+01  0.2275E+02  0.2252E+02
      0.451  0.4251E+01  0.5422E+01  0.2346E+02  0.2324E+02
      0.576  0.2403E+01  0.3631E+01  0.2400E+02  0.2373E+02
      0.701  0.0000E+00  0.0000E+00  0.2400E+02  0.2400E+02
      0.826  0.0000E+00  0.0000E+00  0.2400E+02  0.2400E+02
      0.951  0.0000E+00  0.0000E+00  0.2400E+02  0.2400E+02
      1.076  0.0000E+00  0.0000E+00  0.2400E+02  0.2400E+02
      1.201  0.0000E+00  0.0000E+00  0.2400E+02  0.2400E+02
      1.326  0.0000E+00  0.0000E+00  0.2400E+02  0.2400E+02
      1.451  0.0000E+00  0.0000E+00  0.2400E+02  0.2400E+02
      1.575  0.0000E+00  0.0000E+00  0.2400E+02  0.2400E+02
      1.700  0.0000E+00  0.0000E+00  0.2400E+02  0.2400E+02
      1.825  0.0000E+00  0.0000E+00  0.2400E+02  0.2400E+02
      1.950  0.0000E+00  0.0000E+00  0.2400E+02  0.2400E+02
      2.075  0.0000E+00  0.0000E+00  0.2400E+02  0.2400E+02
      2.200  0.0000E+00  0.0000E+00  0.2400E+02  0.2400E+02
      2.325  0.0000E+00  0.0000E+00  0.2400E+02  0.2400E+02
      2.450  0.0000E+00  0.0000E+00  0.2400E+02  0.2400E+02
      2.575  0.0000E+00  0.0000E+00  0.2400E+02  0.2400E+02
      2.700  0.2650E+00  0.2015E+00  0.2401E+02  0.2401E+02
      2.825  0.4417E+00  0.3750E+00  0.2405E+02  0.2404E+02
      2.950  0.7541E+00  0.5851E+00  0.2413E+02  0.2410E+02
      3.075  0.3289E+01  0.8322E+00  0.2432E+02  0.2419E+02
      3.200  0.6871E+01  0.3336E+01  0.2498E+02  0.2438E+02
      3.325  0.7049E+01  0.7565E+01  0.2590E+02  0.2507E+02
      3.450  0.4036E+01  0.7131E+01  0.2656E+02  0.2610E+02
      3.575  0.7003E+01  0.4096E+01  0.2711E+02  0.2669E+02
      3.700  0.2086E+01  0.6788E+01  0.2767E+02  0.2738E+02
      3.825  0.1536E+01  0.2160E+01  0.2788E+02  0.2777E+02
      3.949  0.2028E+01  0.1305E+01  0.2811E+02  0.2799E+02
      4.074  0.3257E+01  0.2224E+01  0.2840E+02  0.2821E+02
      4.199  0.1056E+02  0.4558E+01  0.2919E+02  0.2860E+02
      4.324  0.4894E+01  0.7252E+01  0.3000E+02  0.2964E+02
      4.449  0.1183E+02  0.8385E+01  0.3108E+02  0.3041E+02
      4.574  0.1088E+02  0.9486E+01  0.3242E+02  0.3172E+02
      4.699  0.1162E+02  0.7031E+01  0.3363E+02  0.3280E+02
      4.824  0.1038E+02  0.1035E+02  0.3507E+02  0.3379E+02
      4.949  0.9265E+01  0.1065E+02  0.3630E+02  0.3530E+02
      5.074  0.9301E+01  0.9975E+01  0.3744E+02  0.3653E+02
      5.199  0.1104E+02  0.8040E+01  0.3860E+02  0.3773E+02
      5.324  0.1011E+02  0.1026E+02  0.3989E+02  0.3887E+02
      5.449  0.1229E+02  0.1554E+02  0.4151E+02  0.4038E+02
      5.574  0.1140E+02  0.7983E+01  0.4269E+02  0.4175E+02
      5.699  0.9971E+01  0.1420E+02  0.4437E+02  0.4319E+02
      5.824  0.9880E+01  0.1147E+02  0.4582E+02  0.4469E+02
      5.949  0.9811E+01  0.1047E+02  0.4700E+02  0.4619E+02
      6.074  0.8299E+01  0.7895E+01  0.4790E+02  0.4739E+02
      6.198  0.7232E+01  0.1078E+02  0.4901E+02  0.4829E+02
      6.323  0.8132E+01  0.7492E+01  0.5000E+02  0.4924E+02
      6.448  0.9420E+01  0.8029E+01  0.5101E+02  0.5023E+02
      6.573  0.1084E+02  0.9599E+01  0.5222E+02  0.5143E+02
      6.698  0.9161E+01  0.8095E+01  0.5336E+02  0.5253E+02
      6.823  0.1114E+02  0.9718E+01  0.5462E+02  0.5361E+02
      6.948  0.1264E+02  0.1159E+02  0.5617E+02  0.5490E+02
      7.073  0.1389E+02  0.1630E+02  0.5792E+02  0.5659E+02
      7.198  0.1780E+02  0.1582E+02  0.5967E+02  0.5858E+02
      7.323  0.1712E+02  0.1702E+02  0.6197E+02  0.6068E+02
      7.448  0.1411E+02  0.1357E+02  0.6399E+02  0.6248E+02
      7.573  0.1047E+02  0.1075E+02  0.6563E+02  0.6408E+02
      7.698  0.7264E+01  0.1081E+02  0.6673E+02  0.6537E+02
      7.823  0.6094E+01  0.9153E+01  0.6757E+02  0.6660E+02
      7.948  0.5923E+01  0.5972E+01  0.6833E+02  0.6752E+02
      8.073  0.6037E+01  0.5188E+01  0.6909E+02  0.6821E+02
      8.198  0.4970E+01  0.4759E+01  0.6977E+02  0.6883E+02
      8.323  0.5491E+01  0.4242E+01  0.7043E+02  0.6940E+02
      8.448  0.4163E+01  0.3582E+01  0.7113E+02  0.6990E+02
      8.572  0.6037E+01  0.3505E+01  0.7167E+02  0.7033E+02
      8.697  0.1256E+02  0.3683E+01  0.7267E+02  0.7078E+02
      8.822  0.9838E+01  0.2876E+01  0.7420E+02  0.7122E+02
      8.947  0.1276E+02  0.2160E+01  0.7549E+02  0.7153E+02
      9.072  0.1258E+02  0.2109E+01  0.7745E+02  0.7179E+02
      9.197  0.7015E+01  0.9625E+00  0.7861E+02  0.7198E+02
      9.322  0.4447E+01  0.7066E+00  0.7925E+02  0.7206E+02
      9.447  0.8887E+01  0.5187E+01  0.8005E+02  0.7241E+02
      9.572  0.9703E+01  0.1098E+02  0.8119E+02  0.7344E+02
      9.697  0.1190E+02  0.8417E+01  0.8287E+02  0.7484E+02
      9.822  0.1113E+02  0.6239E+01  0.8430E+02  0.7569E+02
      9.947  0.8285E+01  0.2588E+02  0.8555E+02  0.7741E+02
     10.072  0.9086E+01  0.1351E+02  0.8654E+02  0.8012E+02
     10.197  0.5552E+01  0.9851E+01  0.8740E+02  0.8166E+02
     10.322  0.6420E+01  0.1002E+02  0.8811E+02  0.8292E+02
     10.447  0.4125E+01  0.1118E+02  0.8886E+02  0.8408E+02
     10.572  0.3863E+01  0.1167E+02  0.8933E+02  0.8575E+02
     10.697  0.4603E+01  0.7865E+01  0.8986E+02  0.8683E+02
     10.822  0.3967E+01  0.8034E+01  0.9041E+02  0.8785E+02
     10.946  0.3388E+01  0.5588E+01  0.9086E+02  0.8885E+02
     11.071  0.3748E+01  0.4225E+01  0.9130E+02  0.8940E+02
     11.196  0.3370E+01  0.6127E+01  0.9174E+02  0.9007E+02
     11.321  0.3438E+01  0.4371E+01  0.9217E+02  0.9071E+02
     11.446  0.3647E+01  0.3997E+01  0.9263E+02  0.9119E+02
     11.571  0.2948E+01  0.4368E+01  0.9305E+02  0.9173E+02
     11.696  0.2314E+01  0.4079E+01  0.9338E+02  0.9226E+02
     11.821  0.2002E+01  0.3700E+01  0.9364E+02  0.9276E+02
     11.946  0.2147E+01  0.2527E+01  0.9390E+02  0.9312E+02
     12.071  0.2510E+01  0.2474E+01  0.9418E+02  0.9344E+02
     12.196  0.1904E+01  0.2065E+01  0.9447E+02  0.9373E+02
     12.321  0.1621E+01  0.2501E+01  0.9469E+02  0.9401E+02
     12.446  0.1446E+01  0.2108E+01  0.9488E+02  0.9431E+02
     12.571  0.1418E+01  0.1732E+01  0.9506E+02  0.9455E+02
     12.696  0.1821E+01  0.1544E+01  0.9526E+02  0.9476E+02
     12.821  0.3113E+01  0.1608E+01  0.9555E+02  0.9495E+02
     12.946  0.3338E+01  0.2102E+01  0.9596E+02  0.9517E+02
     13.071  0.3273E+01  0.3075E+01  0.9637E+02  0.9550E+02
     13.196  0.3118E+01  0.4020E+01  0.9680E+02  0.9596E+02
     13.320  0.2199E+01  0.3730E+01  0.9712E+02  0.9644E+02
     13.445  0.2311E+01  0.2881E+01  0.9739E+02  0.9688E+02
     13.570  0.2564E+01  0.2277E+01  0.9770E+02  0.9719E+02
     13.695  0.2385E+01  0.2260E+01  0.9802E+02  0.9747E+02
     13.820  0.1988E+01  0.2722E+01  0.9829E+02  0.9780E+02
     13.945  0.1688E+01  0.2420E+01  0.9852E+02  0.9811E+02
     14.070  0.1456E+01  0.1900E+01  0.9871E+02  0.9839E+02
     14.195  0.1194E+01  0.1692E+01  0.9888E+02  0.9861E+02
     14.320  0.1065E+01  0.1386E+01  0.9902E+02  0.9880E+02
     14.445  0.1301E+01  0.1177E+01  0.9916E+02  0.9896E+02
     14.570  0.1636E+01  0.1071E+01  0.9934E+02  0.9910E+02
     14.695  0.2130E+01  0.1312E+01  0.9958E+02  0.9924E+02
     14.820  0.2733E+01  0.1784E+01  0.9988E+02  0.9943E+02
     14.945  0.3470E+01  0.2419E+01  0.1003E+03  0.9969E+02
     15.070  0.3444E+01  0.2947E+01  0.1007E+03  0.1000E+03
     15.195  0.3494E+01  0.3679E+01  0.1011E+03  0.1004E+03
     15.320  0.3411E+01  0.3453E+01  0.1016E+03  0.1009E+03
     15.445  0.3853E+01  0.3498E+01  0.1020E+03  0.1013E+03
     15.570  0.2537E+01  0.3844E+01  0.1024E+03  0.1018E+03
     15.694  0.3139E+01  0.2772E+01  0.1027E+03  0.1022E+03
     15.819  0.3392E+01  0.2930E+01  0.1031E+03  0.1025E+03
     15.944  0.3258E+01  0.2907E+01  0.1035E+03  0.1029E+03
     16.069  0.2671E+01  0.3462E+01  0.1039E+03  0.1034E+03
     16.194  0.1946E+01  0.3136E+01  0.1042E+03  0.1038E+03
     16.319  0.2169E+01  0.2080E+01  0.1044E+03  0.1041E+03
     16.444  0.2832E+01  0.1772E+01  0.1048E+03  0.1043E+03
     16.569  0.3797E+01  0.2458E+01  0.1052E+03  0.1046E+03
     16.694  0.4070E+01  0.3930E+01  0.1057E+03  0.1050E+03
     16.819  0.3957E+01  0.4187E+01  0.1062E+03  0.1054E+03
     16.944  0.3173E+01  0.4449E+01  0.1066E+03  0.1060E+03
     17.069  0.3018E+01  0.3240E+01  0.1070E+03  0.1065E+03
     17.194  0.3173E+01  0.2928E+01  0.1073E+03  0.1069E+03
     17.319  0.2955E+01  0.3017E+01  0.1077E+03  0.1072E+03
     17.444  0.3047E+01  0.2940E+01  0.1081E+03  0.1076E+03
     17.569  0.3272E+01  0.3084E+01  0.1085E+03  0.1080E+03
     17.694  0.3691E+01  0.3219E+01  0.1089E+03  0.1084E+03
     17.819  0.3702E+01  0.3666E+01  0.1094E+03  0.1088E+03
     17.944  0.3580E+01  0.3477E+01  0.1099E+03  0.1092E+03
     18.068  0.3405E+01  0.3519E+01  0.1103E+03  0.1097E+03
     18.193  0.3486E+01  0.3308E+01  0.1107E+03  0.1101E+03
     18.318  0.3804E+01  0.3415E+01  0.1112E+03  0.1105E+03
     18.443  0.3358E+01  0.3578E+01  0.1116E+03  0.1110E+03
     18.568  0.3608E+01  0.3562E+01  0.1120E+03  0.1114E+03
     18.693  0.4325E+01  0.3355E+01  0.1125E+03  0.1119E+03
     18.818  0.4431E+01  0.3872E+01  0.1131E+03  0.1123E+03
     18.943  0.3590E+01  0.4611E+01  0.1136E+03  0.1128E+03
     19.068  0.4405E+01  0.3984E+01  0.1141E+03  0.1134E+03
     19.193  0.3965E+01  0.4240E+01  0.1146E+03  0.1139E+03
     19.318  0.4020E+01  0.3972E+01  0.1151E+03  0.1144E+03
     19.443  0.3558E+01  0.4050E+01  0.1156E+03  0.1149E+03
     19.568  0.3358E+01  0.3920E+01  0.1160E+03  0.1154E+03
     19.693  0.3105E+01  0.3378E+01  0.1164E+03  0.1159E+03
     19.818  0.2532E+01  0.2946E+01  0.1168E+03  0.1163E+03
     19.943  0.2381E+01  0.2575E+01  0.1171E+03  0.1166E+03
     20.068  0.2131E+01  0.2531E+01  0.1174E+03  0.1170E+03
     20.193  0.2408E+01  0.2571E+01  0.1176E+03  0.1173E+03
     20.318  0.1104E+01  0.1917E+01  0.1179E+03  0.1176E+03
     20.442  0.4665E+00  0.1361E+01  0.1180E+03  0.1178E+03
     20.567  0.1359E+00  0.7905E+00  0.1180E+03  0.1179E+03
     20.692  0.3148E-01  0.2930E+00  0.1180E+03  0.1180E+03
     20.817  0.4637E-04  0.1066E+00  0.1180E+03  0.1180E+03
     20.942  0.0000E+00  0.2499E-01  0.1180E+03  0.1180E+03
     21.067  0.0000E+00  0.0000E+00  0.1180E+03  0.1180E+03
     21.192  0.0000E+00  0.0000E+00  0.1180E+03  0.1180E+03
     21.317  0.0000E+00  0.0000E+00  0.1180E+03  0.1180E+03
     21.442  0.0000E+00  0.0000E+00  0.1180E+03  0.1180E+03
     21.567  0.0000E+00  0.0000E+00  0.1180E+03  0.1180E+03
     21.692  0.0000E+00  0.0000E+00  0.1180E+03  0.1180E+03
     21.817  0.0000E+00  0.0000E+00  0.1180E+03  0.1180E+03
     21.942  0.0000E+00  0.0000E+00  0.1180E+03  0.1180E+03
     22.067  0.0000E+00  0.0000E+00  0.1180E+03  0.1180E+03
     22.192  0.0000E+00  0.0000E+00  0.1180E+03  0.1180E+03
     22.317  0.0000E+00  0.0000E+00  0.1180E+03  0.1180E+03
     22.442  0.0000E+00  0.0000E+00  0.1180E+03  0.1180E+03
     22.567  0.0000E+00  0.0000E+00  0.1180E+03  0.1180E+03
     22.692  0.0000E+00  0.0000E+00  0.1180E+03  0.1180E+03
     22.816  0.0000E+00  0.0000E+00  0.1180E+03  0.1180E+03
     22.941  0.0000E+00  0.0000E+00  0.1180E+03  0.1180E+03
     23.066  0.0000E+00  0.0000E+00  0.1180E+03  0.1180E+03
     23.06638352    -14.41780262  301      9.00317318      1.00000000
    -14.418  0.0000E+00  0.0000E+00  0.0000E+00  0.0000E+00  0.0000E+00  0.0000E+00  0.0000E+00  0.0000E+00  0.0000E+00  0.0000E+00  0.0000E+00  0.0000E+00  0.0000E+00  0.0000E+00  0.0000E+00  0.0000E+00  0.0000E+00  0.0000E+00
    -14.293  0.0000E+00  0.0000E+00  0.0000E+00  0.0000E+00  0.0000E+00  0.0000E+00  0.0000E+00  0.0000E+00  0.0000E+00  0.0000E+00  0.0000E+00  0.0000E+00  0.0000E+00  0.0000E+00  0.0000E+00  0.0000E+00  0.0000E+00  0.0000E+00
    -14.168  0.0000E+00  0.0000E+00  0.0000E+00  0.0000E+00  0.0000E+00  0.0000E+00  0.0000E+00  0.0000E+00  0.0000E+00  0.0000E+00  0.0000E+00  0.0000E+00  0.0000E+00  0.0000E+00  0.0000E+00  0.0000E+00  0.0000E+00  0.0000E+00
    -14.043  0.0000E+00  0.0000E+00  0.0000E+00  0.0000E+00  0.0000E+00  0.0000E+00  0.0000E+00  0.0000E+00  0.0000E+00  0.0000E+00  0.0000E+00  0.0000E+00  0.0000E+00  0.0000E+00  0.0000E+00  0.0000E+00  0.0000E+00  0.0000E+00
    -13.918  0.0000E+00  0.0000E+00  0.0000E+00  0.0000E+00  0.0000E+00  0.0000E+00  0.0000E+00  0.0000E+00  0.0000E+00  0.0000E+00  0.0000E+00  0.0000E+00  0.0000E+00  0.0000E+00  0.0000E+00  0.0000E+00  0.0000E+00  0.0000E+00
    -13.793  0.0000E+00  0.0000E+00  0.0000E+00  0.0000E+00  0.0000E+00  0.0000E+00  0.0000E+00  0.0000E+00  0.0000E+00  0.0000E+00  0.0000E+00  0.0000E+00  0.0000E+00  0.0000E+00  0.0000E+00  0.0000E+00  0.0000E+00  0.0000E+00
    -13.668  0.0000E+00  0.0000E+00  0.0000E+00  0.0000E+00  0.0000E+00  0.0000E+00  0.0000E+00  0.0000E+00  0.0000E+00  0.0000E+00  0.0000E+00  0.0000E+00  0.0000E+00  0.0000E+00  0.0000E+00  0.0000E+00  0.0000E+00  0.0000E+00
    -13.543  0.0000E+00  0.0000E+00  0.0000E+00  0.0000E+00  0.0000E+00  0.0000E+00  0.0000E+00  0.0000E+00  0.0000E+00  0.0000E+00  0.0000E+00  0.0000E+00  0.0000E+00  0.0000E+00  0.0000E+00  0.0000E+00  0.0000E+00  0.0000E+00
    -13.418  0.0000E+00  0.0000E+00  0.0000E+00  0.0000E+00  0.0000E+00  0.0000E+00  0.0000E+00  0.0000E+00  0.0000E+00  0.0000E+00  0.0000E+00  0.0000E+00  0.0000E+00  0.0000E+00  0.0000E+00  0.0000E+00  0.0000E+00  0.0000E+00
    -13.293  0.0000E+00  0.0000E+00  0.0000E+00  0.0000E+00  0.0000E+00  0.0000E+00  0.0000E+00  0.0000E+00  0.0000E+00  0.0000E+00  0.0000E+00  0.0000E+00  0.0000E+00  0.0000E+00  0.0000E+00  0.0000E+00  0.0000E+00  0.0000E+00
    -13.168  0.0000E+00  0.0000E+00  0.0000E+00  0.0000E+00  0.0000E+00  0.0000E+00  0.0000E+00  0.0000E+00  0.0000E+00  0.0000E+00  0.0000E+00  0.0000E+00  0.0000E+00  0.0000E+00  0.0000E+00  0.0000E+00  0.0000E+00  0.0000E+00
    -13.043  0.0000E+00  0.0000E+00  0.0000E+00  0.0000E+00  0.0000E+00  0.0000E+00  0.0000E+00  0.0000E+00  0.0000E+00  0.0000E+00  0.0000E+00  0.0000E+00  0.0000E+00  0.0000E+00  0.0000E+00  0.0000E+00  0.0000E+00  0.0000E+00
    -12.918  0.0000E+00  0.0000E+00  0.0000E+00  0.0000E+00  0.0000E+00  0.0000E+00  0.0000E+00  0.0000E+00  0.0000E+00  0.0000E+00  0.0000E+00  0.0000E+00  0.0000E+00  0.0000E+00  0.0000E+00  0.0000E+00  0.0000E+00  0.0000E+00
    -12.793  0.0000E+00  0.0000E+00  0.0000E+00  0.0000E+00  0.0000E+00  0.0000E+00  0.0000E+00  0.0000E+00  0.0000E+00  0.0000E+00  0.0000E+00  0.0000E+00  0.0000E+00  0.0000E+00  0.0000E+00  0.0000E+00  0.0000E+00  0.0000E+00
    -12.669  0.0000E+00  0.0000E+00  0.0000E+00  0.0000E+00  0.0000E+00  0.0000E+00  0.0000E+00  0.0000E+00  0.0000E+00  0.0000E+00  0.0000E+00  0.0000E+00  0.0000E+00  0.0000E+00  0.0000E+00  0.0000E+00  0.0000E+00  0.0000E+00
    -12.544  0.0000E+00  0.0000E+00  0.0000E+00  0.0000E+00  0.0000E+00  0.0000E+00  0.0000E+00  0.0000E+00  0.0000E+00  0.0000E+00  0.0000E+00  0.0000E+00  0.0000E+00  0.0000E+00  0.0000E+00  0.0000E+00  0.0000E+00  0.0000E+00
    -12.419  0.0000E+00  0.0000E+00  0.0000E+00  0.0000E+00  0.0000E+00  0.0000E+00  0.0000E+00  0.0000E+00  0.0000E+00  0.0000E+00  0.0000E+00  0.0000E+00  0.0000E+00  0.0000E+00  0.0000E+00  0.0000E+00  0.0000E+00  0.0000E+00
    -12.294  0.0000E+00  0.0000E+00  0.0000E+00  0.0000E+00  0.0000E+00  0.0000E+00  0.0000E+00  0.0000E+00  0.0000E+00  0.0000E+00  0.0000E+00  0.0000E+00  0.0000E+00  0.0000E+00  0.0000E+00  0.0000E+00  0.0000E+00  0.0000E+00
    -12.169  0.0000E+00  0.0000E+00  0.0000E+00  0.0000E+00  0.0000E+00  0.0000E+00  0.0000E+00  0.0000E+00  0.0000E+00  0.0000E+00  0.0000E+00  0.0000E+00  0.0000E+00  0.0000E+00  0.0000E+00  0.0000E+00  0.0000E+00  0.0000E+00
    -12.044  0.0000E+00  0.0000E+00  0.0000E+00  0.0000E+00  0.0000E+00  0.0000E+00  0.0000E+00  0.0000E+00  0.0000E+00  0.0000E+00  0.0000E+00  0.0000E+00  0.0000E+00  0.0000E+00  0.0000E+00  0.0000E+00  0.0000E+00  0.0000E+00
    -11.919  0.0000E+00  0.0000E+00  0.0000E+00  0.0000E+00  0.0000E+00  0.0000E+00  0.0000E+00  0.0000E+00  0.0000E+00  0.0000E+00  0.0000E+00  0.0000E+00  0.0000E+00  0.0000E+00  0.0000E+00  0.0000E+00  0.0000E+00  0.0000E+00
    -11.794  0.0000E+00  0.0000E+00  0.0000E+00  0.0000E+00  0.0000E+00  0.0000E+00  0.0000E+00  0.0000E+00  0.0000E+00  0.0000E+00  0.0000E+00  0.0000E+00  0.0000E+00  0.0000E+00  0.0000E+00  0.0000E+00  0.0000E+00  0.0000E+00
    -11.669  0.0000E+00  0.0000E+00  0.0000E+00  0.0000E+00  0.0000E+00  0.0000E+00  0.0000E+00  0.0000E+00  0.0000E+00  0.0000E+00  0.0000E+00  0.0000E+00  0.0000E+00  0.0000E+00  0.0000E+00  0.0000E+00  0.0000E+00  0.0000E+00
    -11.544  0.0000E+00  0.0000E+00  0.0000E+00  0.0000E+00  0.0000E+00  0.0000E+00  0.0000E+00  0.0000E+00  0.0000E+00  0.0000E+00  0.0000E+00  0.0000E+00  0.0000E+00  0.0000E+00  0.0000E+00  0.0000E+00  0.0000E+00  0.0000E+00
    -11.419  0.0000E+00  0.0000E+00  0.0000E+00  0.0000E+00  0.0000E+00  0.0000E+00  0.0000E+00  0.0000E+00  0.0000E+00  0.0000E+00  0.0000E+00  0.0000E+00  0.0000E+00  0.0000E+00  0.0000E+00  0.0000E+00  0.0000E+00  0.0000E+00
    -11.294  0.0000E+00  0.0000E+00  0.0000E+00  0.0000E+00  0.0000E+00  0.0000E+00  0.0000E+00  0.0000E+00  0.0000E+00  0.0000E+00  0.0000E+00  0.0000E+00  0.0000E+00  0.0000E+00  0.0000E+00  0.0000E+00  0.0000E+00  0.0000E+00
    -11.169  0.0000E+00  0.0000E+00  0.0000E+00  0.0000E+00  0.0000E+00  0.0000E+00  0.0000E+00  0.0000E+00  0.0000E+00  0.0000E+00  0.0000E+00  0.0000E+00  0.0000E+00  0.0000E+00  0.0000E+00  0.0000E+00  0.0000E+00  0.0000E+00
    -11.044  0.0000E+00  0.0000E+00  0.0000E+00  0.0000E+00  0.0000E+00  0.0000E+00  0.0000E+00  0.0000E+00  0.0000E+00  0.0000E+00  0.0000E+00  0.0000E+00  0.0000E+00  0.0000E+00  0.0000E+00  0.0000E+00  0.0000E+00  0.0000E+00
    -10.919  0.0000E+00  0.0000E+00  0.0000E+00  0.0000E+00  0.0000E+00  0.0000E+00  0.0000E+00  0.0000E+00  0.0000E+00  0.0000E+00  0.0000E+00  0.0000E+00  0.0000E+00  0.0000E+00  0.0000E+00  0.0000E+00  0.0000E+00  0.0000E+00
    -10.794  0.0000E+00  0.0000E+00  0.0000E+00  0.0000E+00  0.0000E+00  0.0000E+00  0.0000E+00  0.0000E+00  0.0000E+00  0.0000E+00  0.0000E+00  0.0000E+00  0.0000E+00  0.0000E+00  0.0000E+00  0.0000E+00  0.0000E+00  0.0000E+00
    -10.669  0.0000E+00  0.0000E+00  0.0000E+00  0.0000E+00  0.0000E+00  0.0000E+00  0.0000E+00  0.0000E+00  0.0000E+00  0.0000E+00  0.0000E+00  0.0000E+00  0.0000E+00  0.0000E+00  0.0000E+00  0.0000E+00  0.0000E+00  0.0000E+00
    -10.544  0.0000E+00  0.0000E+00  0.0000E+00  0.0000E+00  0.0000E+00  0.0000E+00  0.0000E+00  0.0000E+00  0.0000E+00  0.0000E+00  0.0000E+00  0.0000E+00  0.0000E+00  0.0000E+00  0.0000E+00  0.0000E+00  0.0000E+00  0.0000E+00
    -10.419  0.0000E+00  0.0000E+00  0.0000E+00  0.0000E+00  0.0000E+00  0.0000E+00  0.0000E+00  0.0000E+00  0.0000E+00  0.0000E+00  0.0000E+00  0.0000E+00  0.0000E+00  0.0000E+00  0.0000E+00  0.0000E+00  0.0000E+00  0.0000E+00
    -10.295  0.0000E+00  0.0000E+00  0.0000E+00  0.0000E+00  0.0000E+00  0.0000E+00  0.0000E+00  0.0000E+00  0.0000E+00  0.0000E+00  0.0000E+00  0.0000E+00  0.0000E+00  0.0000E+00  0.0000E+00  0.0000E+00  0.0000E+00  0.0000E+00
    -10.170  0.0000E+00  0.0000E+00  0.0000E+00  0.0000E+00  0.0000E+00  0.0000E+00  0.0000E+00  0.0000E+00  0.0000E+00  0.0000E+00  0.0000E+00  0.0000E+00  0.0000E+00  0.0000E+00  0.0000E+00  0.0000E+00  0.0000E+00  0.0000E+00
    -10.045  0.0000E+00  0.0000E+00  0.0000E+00  0.0000E+00  0.0000E+00  0.0000E+00  0.0000E+00  0.0000E+00  0.0000E+00  0.0000E+00  0.0000E+00  0.0000E+00  0.0000E+00  0.0000E+00  0.0000E+00  0.0000E+00  0.0000E+00  0.0000E+00
     -9.920  0.0000E+00  0.0000E+00  0.0000E+00  0.0000E+00  0.0000E+00  0.0000E+00  0.0000E+00  0.0000E+00  0.0000E+00  0.0000E+00  0.0000E+00  0.0000E+00  0.0000E+00  0.0000E+00  0.0000E+00  0.0000E+00  0.0000E+00  0.0000E+00
     -9.795  0.0000E+00  0.0000E+00  0.0000E+00  0.0000E+00  0.0000E+00  0.0000E+00  0.0000E+00  0.0000E+00  0.0000E+00  0.0000E+00  0.0000E+00  0.0000E+00  0.0000E+00  0.0000E+00  0.0000E+00  0.0000E+00  0.0000E+00  0.0000E+00
     -9.670  0.0000E+00  0.0000E+00  0.0000E+00  0.0000E+00  0.0000E+00  0.0000E+00  0.0000E+00  0.0000E+00  0.0000E+00  0.0000E+00  0.0000E+00  0.0000E+00  0.0000E+00  0.0000E+00  0.0000E+00  0.0000E+00  0.0000E+00  0.0000E+00
     -9.545  0.0000E+00  0.0000E+00  0.0000E+00  0.0000E+00  0.0000E+00  0.0000E+00  0.0000E+00  0.0000E+00  0.0000E+00  0.0000E+00  0.0000E+00  0.0000E+00  0.0000E+00  0.0000E+00  0.0000E+00  0.0000E+00  0.0000E+00  0.0000E+00
     -9.420  0.0000E+00  0.0000E+00  0.0000E+00  0.0000E+00  0.0000E+00  0.0000E+00  0.0000E+00  0.0000E+00  0.0000E+00  0.0000E+00  0.0000E+00  0.0000E+00  0.0000E+00  0.0000E+00  0.0000E+00  0.0000E+00  0.0000E+00  0.0000E+00
     -9.295  0.0000E+00  0.0000E+00  0.0000E+00  0.0000E+00  0.0000E+00  0.0000E+00  0.0000E+00  0.0000E+00  0.0000E+00  0.0000E+00  0.0000E+00  0.0000E+00  0.0000E+00  0.0000E+00  0.0000E+00  0.0000E+00  0.0000E+00  0.0000E+00
     -9.170  0.0000E+00  0.0000E+00  0.0000E+00  0.0000E+00  0.0000E+00  0.0000E+00  0.0000E+00  0.0000E+00  0.0000E+00  0.0000E+00  0.0000E+00  0.0000E+00  0.0000E+00  0.0000E+00  0.0000E+00  0.0000E+00  0.0000E+00  0.0000E+00
     -9.045  0.0000E+00  0.0000E+00  0.0000E+00  0.0000E+00  0.0000E+00  0.0000E+00  0.0000E+00  0.0000E+00  0.0000E+00  0.0000E+00  0.0000E+00  0.0000E+00  0.0000E+00  0.0000E+00  0.0000E+00  0.0000E+00  0.0000E+00  0.0000E+00
     -8.920  0.0000E+00  0.0000E+00  0.0000E+00  0.0000E+00  0.0000E+00  0.0000E+00  0.0000E+00  0.0000E+00  0.0000E+00  0.0000E+00  0.0000E+00  0.0000E+00  0.0000E+00  0.0000E+00  0.0000E+00  0.0000E+00  0.0000E+00  0.0000E+00
     -8.795  0.0000E+00  0.0000E+00  0.0000E+00  0.0000E+00  0.0000E+00  0.0000E+00  0.0000E+00  0.0000E+00  0.0000E+00  0.0000E+00  0.0000E+00  0.0000E+00  0.0000E+00  0.0000E+00  0.0000E+00  0.0000E+00  0.0000E+00  0.0000E+00
     -8.670  0.0000E+00  0.0000E+00  0.0000E+00  0.0000E+00  0.0000E+00  0.0000E+00  0.0000E+00  0.0000E+00  0.0000E+00  0.0000E+00  0.0000E+00  0.0000E+00  0.0000E+00  0.0000E+00  0.0000E+00  0.0000E+00  0.0000E+00  0.0000E+00
     -8.545  0.0000E+00  0.0000E+00  0.0000E+00  0.0000E+00  0.0000E+00  0.0000E+00  0.0000E+00  0.0000E+00  0.0000E+00  0.0000E+00  0.0000E+00  0.0000E+00  0.0000E+00  0.0000E+00  0.0000E+00  0.0000E+00  0.0000E+00  0.0000E+00
     -8.420  0.0000E+00  0.0000E+00  0.0000E+00  0.0000E+00  0.0000E+00  0.0000E+00  0.0000E+00  0.0000E+00  0.0000E+00  0.0000E+00  0.0000E+00  0.0000E+00  0.0000E+00  0.0000E+00  0.0000E+00  0.0000E+00  0.0000E+00  0.0000E+00
     -8.295  0.0000E+00  0.0000E+00  0.0000E+00  0.0000E+00  0.0000E+00  0.0000E+00  0.0000E+00  0.0000E+00  0.0000E+00  0.0000E+00  0.0000E+00  0.0000E+00  0.0000E+00  0.0000E+00  0.0000E+00  0.0000E+00  0.0000E+00  0.0000E+00
     -8.170  0.0000E+00  0.0000E+00  0.0000E+00  0.0000E+00  0.0000E+00  0.0000E+00  0.0000E+00  0.0000E+00  0.0000E+00  0.0000E+00  0.0000E+00  0.0000E+00  0.0000E+00  0.0000E+00  0.0000E+00  0.0000E+00  0.0000E+00  0.0000E+00