unknown system                          
   1.00000000000000     
     5.707918    0.000000    0.000000
     0.000000    5.707918    0.000000
     0.000000    0.000000    7.408951
   Rh   Sn   V 
     8     4     4
Direct
  0.000000  0.500000  0.499999
  0.500000  0.000000  0.499999
  0.500000  0.000000  0.000000
  0.000000  0.500000  0.000000
  0.500000  0.500000  0.499999
  0.000000  0.000000  0.499999
  0.500000  0.500000  0.000000
  0.000000  0.000000  0.000000
  0.250000  0.750000  0.750000
  0.750000  0.250000  0.750000
  0.750000  0.750000  0.250000
  0.250000  0.250000  0.250000
  0.250000  0.750000  0.250000
  0.750000  0.250000  0.250000
  0.750000  0.750000  0.750000
  0.250000  0.250000  0.750000
 
   32   32   42
 0.42658E-02 0.73895E-05 0.49475E-03 0.88620E-02 0.44196E-01 0.92988E-01 0.11434     0.12964     0.15264     0.12964    
 0.11434     0.92988E-01 0.44197E-01 0.88623E-02 0.49478E-03 0.73905E-05 0.42667E-02 0.73900E-05 0.49476E-03 0.88620E-02
 0.44196E-01 0.92988E-01 0.11434     0.12964     0.15264     0.12964     0.11434     0.92988E-01 0.44197E-01 0.88623E-02
 0.49478E-03 0.73901E-05 0.73895E-05 0.68916E-04 0.16459E-02 0.15216E-01 0.56058E-01 0.10116     0.11523     0.12814    
 0.15024     0.12814     0.11522     0.10116     0.56059E-01 0.15216E-01 0.16460E-02 0.68918E-04 0.73900E-05 0.68918E-04
 0.16459E-02 0.15216E-01 0.56058E-01 0.10116     0.11523     0.12814     0.15024     0.12814     0.11522     0.10116    
 0.56059E-01 0.15216E-01 0.16460E-02 0.68917E-04 0.49475E-03 0.16459E-02 0.10575E-01 0.41300E-01 0.89702E-01 0.11836    
 0.11528     0.12455     0.14413     0.12455     0.11528     0.11836     0.89702E-01 0.41300E-01 0.10575E-01 0.16459E-02
 0.49476E-03 0.16459E-02 0.10575E-01 0.41300E-01 0.89702E-01 0.11836     0.11528     0.12455     0.14413     0.12455    
 0.11528     0.11836     0.89702E-01 0.41300E-01 0.10575E-01 0.16459E-02 0.88620E-02 0.15216E-01 0.41300E-01 0.88307E-01
 0.12610     0.12647     0.11159     0.12105     0.13621     0.12105     0.11159     0.12647     0.12610     0.88307E-01
 0.41300E-01 0.15216E-01 0.88620E-02 0.15216E-01 0.41300E-01 0.88307E-01 0.12610     0.12647     0.11159     0.12105    
 0.13621     0.12105     0.11159     0.12647     0.12610     0.88307E-01 0.41300E-01 0.15216E-01 0.44196E-01 0.56058E-01
 0.89702E-01 0.12610     0.13473     0.11682     0.10739     0.11838     0.12683     0.11839     0.10739     0.11682    
 0.13473     0.12610     0.89703E-01 0.56059E-01 0.44196E-01 0.56058E-01 0.89702E-01 0.12610     0.13473     0.11682    
 0.10739     0.11838     0.12683     0.11839     0.10739     0.11682     0.13473     0.12610     0.89703E-01 0.56059E-01
 0.92988E-01 0.10116     0.11836     0.12647     0.11682     0.10543     0.10748     0.11422     0.11571     0.11422    
 0.10748     0.10543     0.11683     0.12648     0.11837     0.10116     0.92988E-01 0.10116     0.11836     0.12647    
 0.11682     0.10543     0.10748     0.11422     0.11571     0.11422     0.10748     0.10543     0.11683     0.12648    
 0.11837     0.10116     0.11434     0.11523     0.11528     0.11159     0.10739     0.10748     0.10938     0.10775    
 0.10571     0.10775     0.10938     0.10748     0.10739     0.11159     0.11528     0.11523     0.11434     0.11523    
 0.11528     0.11159     0.10739     0.10748     0.10938     0.10775     0.10571     0.10775     0.10938     0.10748    
 0.10739     0.11159     0.11528     0.11523     0.12964     0.12814     0.12455     0.12105     0.11838     0.11422    
 0.10775     0.10244     0.10069     0.10244     0.10775     0.11422     0.11839     0.12105     0.12455     0.12814    
 0.12964     0.12814     0.12455     0.12105     0.11838     0.11422     0.10775     0.10244     0.10069     0.10244    
 0.10775     0.11422     0.11839     0.12105     0.12455     0.12814     0.15264     0.15024     0.14413     0.13621    
 0.12683     0.11571     0.10571     0.10069     0.99733E-01 0.10069     0.10571     0.11572     0.12683     0.13622    
 0.14413     0.15024     0.15264     0.15024     0.14413     0.13621     0.12683     0.11571     0.10571     0.10069    
 0.99733E-01 0.10069     0.10571     0.11572     0.12683     0.13622     0.14413     0.15024     0.12964     0.12814    
 0.12455     0.12105     0.11839     0.11422     0.10775     0.10244     0.10069     0.10244     0.10775     0.11422    
 0.11839     0.12105     0.12455     0.12814     0.12964     0.12814     0.12455     0.12105     0.11839     0.11422    
 0.10775     0.10244     0.10069     0.10244     0.10775     0.11422     0.11839     0.12105     0.12455     0.12814    
 0.11434     0.11522     0.11528     0.11159     0.10739     0.10748     0.10938     0.10775     0.10571     0.10775    
 0.10938     0.10748     0.10739     0.11159     0.11528     0.11523     0.11434     0.11522     0.11528     0.11159    
 0.10739     0.10748     0.10938     0.10775     0.10571     0.10775     0.10938     0.10748     0.10739     0.11159    
 0.11528     0.11523     0.92988E-01 0.10116     0.11836     0.12647     0.11682     0.10543     0.10748     0.11422    
 0.11572     0.11422     0.10748     0.10543     0.11683     0.12648     0.11837     0.10116     0.92988E-01 0.10116    
 0.11836     0.12647     0.11682     0.10543     0.10748     0.11422     0.11572     0.11422     0.10748     0.10543    
 0.11683     0.12648     0.11837     0.10116     0.44197E-01 0.56059E-01 0.89702E-01 0.12610     0.13473     0.11683    
 0.10739     0.11839     0.12683     0.11839     0.10739     0.11683     0.13473     0.12610     0.89703E-01 0.56059E-01
 0.44197E-01 0.56059E-01 0.89702E-01 0.12610     0.13473     0.11683     0.10739     0.11839     0.12683     0.11839    
 0.10739     0.11683     0.13473     0.12610     0.89703E-01 0.56059E-01 0.88623E-02 0.15216E-01 0.41300E-01 0.88307E-01
 0.12610     0.12648     0.11159     0.12105     0.13622     0.12105     0.11159     0.12648     0.12610     0.88307E-01
 0.41300E-01 0.15216E-01 0.88623E-02 0.15216E-01 0.41300E-01 0.88307E-01 0.12610     0.12648     0.11159     0.12105    
 0.13622     0.12105     0.11159     0.12648     0.12610     0.88307E-01 0.41300E-01 0.15216E-01 0.49478E-03 0.16460E-02
 0.10575E-01 0.41300E-01 0.89703E-01 0.11837     0.11528     0.12455     0.14413     0.12455     0.11528     0.11837    
 0.89703E-01 0.41300E-01 0.10575E-01 0.16459E-02 0.49478E-03 0.16460E-02 0.10575E-01 0.41300E-01 0.89703E-01 0.11837    
 0.11528     0.12455     0.14413     0.12455     0.11528     0.11837     0.89703E-01 0.41300E-01 0.10575E-01 0.16459E-02
 0.73905E-05 0.68918E-04 0.16459E-02 0.15216E-01 0.56059E-01 0.10116     0.11523     0.12814     0.15024     0.12814    
 0.11523     0.10116     0.56059E-01 0.15216E-01 0.16459E-02 0.68917E-04 0.73901E-05 0.68917E-04 0.16459E-02 0.15216E-01
 0.56059E-01 0.10116     0.11523     0.12814     0.15024     0.12814     0.11523     0.10116     0.56059E-01 0.15216E-01
 0.16459E-02 0.68918E-04 0.42667E-02 0.73900E-05 0.49476E-03 0.88620E-02 0.44196E-01 0.92988E-01 0.11434     0.12964    
 0.15264     0.12964     0.11434     0.92988E-01 0.44197E-01 0.88623E-02 0.49478E-03 0.73901E-05 0.42658E-02 0.73895E-05
 0.49475E-03 0.88620E-02 0.44196E-01 0.92988E-01 0.11434     0.12964     0.15264     0.12964     0.11434     0.92988E-01
 0.44197E-01 0.88623E-02 0.49478E-03 0.73905E-05 0.73900E-05 0.68918E-04 0.16459E-02 0.15216E-01 0.56058E-01 0.10116    
 0.11523     0.12814     0.15024     0.12814     0.11522     0.10116     0.56059E-01 0.15216E-01 0.16460E-02 0.68917E-04
 0.73895E-05 0.68916E-04 0.16459E-02 0.15216E-01 0.56058E-01 0.10116     0.11523     0.12814     0.15024     0.12814    
 0.11522     0.10116     0.56059E-01 0.15216E-01 0.16460E-02 0.68918E-04 0.49476E-03 0.16459E-02 0.10575E-01 0.41300E-01
 0.89702E-01 0.11836     0.11528     0.12455     0.14413     0.12455     0.11528     0.11836     0.89702E-01 0.41300E-01
 0.10575E-01 0.16459E-02 0.49475E-03 0.16459E-02 0.10575E-01 0.41300E-01 0.89702E-01 0.11836     0.11528     0.12455    
 0.14413     0.12455     0.11528     0.11836     0.89702E-01 0.41300E-01 0.10575E-01 0.16459E-02 0.88620E-02 0.15216E-01
 0.41300E-01 0.88307E-01 0.12610     0.12647     0.11159     0.12105     0.13621     0.12105     0.11159     0.12647    
 0.12610     0.88307E-01 0.41300E-01 0.15216E-01 0.88620E-02 0.15216E-01 0.41300E-01 0.88307E-01 0.12610     0.12647    
 0.11159     0.12105     0.13621     0.12105     0.11159     0.12647     0.12610     0.88307E-01 0.41300E-01 0.15216E-01
 0.44196E-01 0.56058E-01 0.89702E-01 0.12610     0.13473     0.11682     0.10739     0.11838     0.12683     0.11839    
 0.10739     0.11682     0.13473     0.12610     0.89703E-01 0.56059E-01 0.44196E-01 0.56058E-01 0.89702E-01 0.12610    
 0.13473     0.11682     0.10739     0.11838     0.12683     0.11839     0.10739     0.11682     0.13473     0.12610    
 0.89703E-01 0.56059E-01 0.92988E-01 0.10116     0.11836     0.12647     0.11682     0.10543     0.10748     0.11422    
 0.11571     0.11422     0.10748     0.10543     0.11683     0.12648     0.11837     0.10116     0.92988E-01 0.10116    
 0.11836     0.12647     0.11682     0.10543     0.10748     0.11422     0.11571     0.11422     0.10748     0.10543    
 0.11683     0.12648     0.11837     0.10116     0.11434     0.11523     0.11528     0.11159     0.10739     0.10748    
 0.10938     0.10775     0.10571     0.10775     0.10938     0.10748     0.10739     0.11159     0.11528     0.11523    
 0.11434     0.11523     0.11528     0.11159     0.10739     0.10748     0.10938     0.10775     0.10571     0.10775    
 0.10938     0.10748     0.10739     0.11159     0.11528     0.11523     0.12964     0.12814     0.12455     0.12105    
 0.11838     0.11422     0.10775     0.10244     0.10069     0.10244     0.10775     0.11422     0.11839     0.12105    
 0.12455     0.12814     0.12964     0.12814     0.12455     0.12105     0.11838     0.11422     0.10775     0.10244    
 0.10069     0.10244     0.10775     0.11422     0.11839     0.12105     0.12455     0.12814     0.15264     0.15024    
 0.14413     0.13621     0.12683     0.11571     0.10571     0.10069     0.99733E-01 0.10069     0.10571     0.11572    
 0.12683     0.13622     0.14413     0.15024     0.15264     0.15024     0.14413     0.13621     0.12683     0.11571    
 0.10571     0.10069     0.99733E-01 0.10069     0.10571     0.11572     0.12683     0.13622     0.14413     0.15024    
 0.12964     0.12814     0.12455     0.12105     0.11839     0.11422     0.10775     0.10244     0.10069     0.10244    
 0.10775     0.11422     0.11839     0.12105     0.12455     0.12814     0.12964     0.12814     0.12455     0.12105    
 0.11839     0.11422     0.10775     0.10244     0.10069     0.10244     0.10775     0.11422     0.11839     0.12105    
 0.12455     0.12814     0.11434     0.11522     0.11528     0.11159     0.10739     0.10748     0.10938     0.10775    
 0.10571     0.10775     0.10938     0.10748     0.10739     0.11159     0.11528     0.11523     0.11434     0.11522    
 0.11528     0.11159     0.10739     0.10748     0.10938     0.10775     0.10571     0.10775     0.10938     0.10748    
 0.10739     0.11159     0.11528     0.11523     0.92988E-01 0.10116     0.11836     0.12647     0.11682     0.10543    
 0.10748     0.11422     0.11572     0.11422     0.10748     0.10543     0.11683     0.12648     0.11837     0.10116    
 0.92988E-01 0.10116     0.11836     0.12647     0.11682     0.10543     0.10748     0.11422     0.11572     0.11422    
 0.10748     0.10543     0.11683     0.12648     0.11837     0.10116     0.44197E-01 0.56059E-01 0.89702E-01 0.12610    
 0.13473     0.11683     0.10739     0.11839     0.12683     0.11839     0.10739     0.11683     0.13473     0.12610    
 0.89703E-01 0.56059E-01 0.44197E-01 0.56059E-01 0.89702E-01 0.12610     0.13473     0.11683     0.10739     0.11839    
 0.12683     0.11839     0.10739     0.11683     0.13473     0.12610     0.89703E-01 0.56059E-01 0.88623E-02 0.15216E-01
 0.41300E-01 0.88307E-01 0.12610     0.12648     0.11159     0.12105     0.13622     0.12105     0.11159     0.12648    
 0.12610     0.88307E-01 0.41300E-01 0.15216E-01 0.88623E-02 0.15216E-01 0.41300E-01 0.88307E-01 0.12610     0.12648    
 0.11159     0.12105     0.13622     0.12105     0.11159     0.12648     0.12610     0.88307E-01 0.41300E-01 0.15216E-01
 0.49478E-03 0.16460E-02 0.10575E-01 0.41300E-01 0.89703E-01 0.11837     0.11528     0.12455     0.14413     0.12455    
 0.11528     0.11837     0.89703E-01 0.41300E-01 0.10575E-01 0.16459E-02 0.49478E-03 0.16460E-02 0.10575E-01 0.41300E-01
 0.89703E-01 0.11837     0.11528     0.12455     0.14413     0.12455     0.11528     0.11837     0.89703E-01 0.41300E-01
 0.10575E-01 0.16459E-02 0.73901E-05 0.68917E-04 0.16459E-02 0.15216E-01 0.56059E-01 0.10116     0.11523     0.12814    
 0.15024     0.12814     0.11523     0.10116     0.56059E-01 0.15216E-01 0.16459E-02 0.68918E-04 0.73905E-05 0.68918E-04
 0.16459E-02 0.15216E-01 0.56059E-01 0.10116     0.11523     0.12814     0.15024     0.12814     0.11523     0.10116    
 0.56059E-01 0.15216E-01 0.16459E-02 0.68917E-04 0.11116E-04 0.53185E-04 0.12334E-02 0.12859E-01 0.51176E-01 0.96740E-01
 0.11366     0.12906     0.15234     0.12908     0.11364     0.96746E-01 0.51177E-01 0.12858E-01 0.12336E-02 0.53173E-04
 0.11116E-04 0.53186E-04 0.12334E-02 0.12859E-01 0.51176E-01 0.96740E-01 0.11366     0.12906     0.15234     0.12908    
 0.11364     0.96746E-01 0.51177E-01 0.12858E-01 0.12336E-02 0.53172E-04 0.53185E-04 0.24343E-03 0.29685E-02 0.19805E-01
 0.61903E-01 0.10246     0.11275     0.12691     0.14982     0.12692     0.11274     0.10247     0.61903E-01 0.19805E-01
 0.29690E-02 0.24341E-03 0.53186E-04 0.26985E-03 0.31967E-02 0.20831E-01 0.64429E-01 0.10631     0.11661     0.12942    
 0.15129     0.12944     0.11659     0.10632     0.64430E-01 0.20830E-01 0.31972E-02 0.26983E-03 0.12334E-02 0.29685E-02
 0.14040E-01 0.46778E-01 0.92723E-01 0.11589     0.11153     0.12361     0.14423     0.12363     0.11151     0.11589    
 0.92720E-01 0.46777E-01 0.14041E-01 0.29685E-02 0.12334E-02 0.31967E-02 0.15220E-01 0.50283E-01 0.99252E-01 0.12434    
 0.11912     0.12846     0.14730     0.12848     0.11910     0.12435     0.99250E-01 0.50283E-01 0.15221E-01 0.31967E-02
 0.12859E-01 0.19805E-01 0.46778E-01 0.91485E-01 0.12366     0.12031     0.10769     0.12072     0.13670     0.12073    
 0.10768     0.12031     0.12366     0.91484E-01 0.46779E-01 0.19805E-01 0.12859E-01 0.20831E-01 0.50283E-01 0.99128E-01
 0.13531     0.13337     0.11829     0.12736     0.14113     0.12737     0.11828     0.13338     0.13531     0.99128E-01
 0.50284E-01 0.20831E-01 0.51176E-01 0.61903E-01 0.92723E-01 0.12366     0.12751     0.11000     0.10470     0.11876    
 0.12782     0.11876     0.10470     0.11000     0.12751     0.12366     0.92723E-01 0.61904E-01 0.51176E-01 0.64429E-01
 0.99252E-01 0.13531     0.14302     0.12536     0.11644     0.12568     0.13223     0.12569     0.11644     0.12536    
 0.14302     0.13531     0.99253E-01 0.64430E-01 0.96740E-01 0.10246     0.11589     0.12031     0.11000     0.10134    
 0.10680     0.11593     0.11830     0.11593     0.10681     0.10134     0.11000     0.12031     0.11589     0.10247    
 0.96740E-01 0.10631     0.12434     0.13337     0.12536     0.11540     0.11669     0.12025     0.11991     0.12025    
 0.11670     0.11540     0.12536     0.13337     0.12434     0.10631     0.11366     0.11275     0.11153     0.10769    
 0.10470     0.10680     0.11103     0.11178     0.11089     0.11178     0.11104     0.10680     0.10470     0.10769    
 0.11153     0.11275     0.11366     0.11661     0.11912     0.11829     0.11644     0.11669     0.11582     0.11072    
 0.10728     0.11072     0.11582     0.11669     0.11644     0.11829     0.11912     0.11661     0.12906     0.12691    
 0.12361     0.12072     0.11876     0.11593     0.11178     0.10887     0.10816     0.10887     0.11179     0.11594    
 0.11876     0.12072     0.12362     0.12691     0.12906     0.12942     0.12846     0.12736     0.12568     0.12025    
 0.11072     0.10238     0.99378E-01 0.10238     0.11072     0.12025     0.12569     0.12736     0.12847     0.12943    
 0.15234     0.14982     0.14423     0.13670     0.12782     0.11830     0.11089     0.10816     0.10807     0.10816    
 0.11090     0.11830     0.12783     0.13670     0.14423     0.14982     0.15234     0.15129     0.14730     0.14113    
 0.13223     0.11991     0.10728     0.99378E-01 0.97115E-01 0.99380E-01 0.10728     0.11992     0.13223     0.14114    
 0.14730     0.15129     0.12908     0.12692     0.12363     0.12073     0.11876     0.11593     0.11178     0.10887    
 0.10816     0.10887     0.11179     0.11594     0.11876     0.12073     0.12363     0.12692     0.12908     0.12944    
 0.12848     0.12737     0.12569     0.12025     0.11072     0.10238     0.99380E-01 0.10238     0.11072     0.12025    
 0.12569     0.12737     0.12848     0.12944     0.11364     0.11274     0.11151     0.10768     0.10470     0.10681    
 0.11104     0.11179     0.11090     0.11179     0.11104     0.10681     0.10470     0.10769     0.11152     0.11274    
 0.11364     0.11659     0.11910     0.11828     0.11644     0.11670     0.11582     0.11072     0.10728     0.11072    
 0.11582     0.11670     0.11645     0.11828     0.11911     0.11659     0.96746E-01 0.10247     0.11589     0.12031    
 0.11000     0.10134     0.10680     0.11594     0.11830     0.11594     0.10681     0.10135     0.11001     0.12031    
 0.11590     0.10247     0.96746E-01 0.10632     0.12435     0.13338     0.12536     0.11540     0.11669     0.12025    
 0.11992     0.12025     0.11670     0.11540     0.12537     0.13338     0.12435     0.10632     0.51177E-01 0.61903E-01
 0.92720E-01 0.12366     0.12751     0.11000     0.10470     0.11876     0.12783     0.11876     0.10470     0.11001    
 0.12751     0.12366     0.92723E-01 0.61904E-01 0.51177E-01 0.64430E-01 0.99250E-01 0.13531     0.14302     0.12536    
 0.11644     0.12569     0.13223     0.12569     0.11645     0.12537     0.14303     0.13531     0.99252E-01 0.64430E-01
 0.12858E-01 0.19805E-01 0.46777E-01 0.91484E-01 0.12366     0.12031     0.10769     0.12072     0.13670     0.12073    
 0.10769     0.12031     0.12366     0.91487E-01 0.46778E-01 0.19805E-01 0.12858E-01 0.20830E-01 0.50283E-01 0.99128E-01
 0.13531     0.13337     0.11829     0.12736     0.14114     0.12737     0.11828     0.13338     0.13531     0.99130E-01
 0.50283E-01 0.20830E-01 0.12336E-02 0.29690E-02 0.14041E-01 0.46779E-01 0.92723E-01 0.11589     0.11153     0.12362    
 0.14423     0.12363     0.11152     0.11590     0.92723E-01 0.46778E-01 0.14041E-01 0.29688E-02 0.12336E-02 0.31972E-02
 0.15221E-01 0.50284E-01 0.99253E-01 0.12434     0.11912     0.12847     0.14730     0.12848     0.11911     0.12435    
 0.99252E-01 0.50283E-01 0.15221E-01 0.31970E-02 0.53173E-04 0.24341E-03 0.29685E-02 0.19805E-01 0.61904E-01 0.10247    
 0.11275     0.12691     0.14982     0.12692     0.11274     0.10247     0.61904E-01 0.19805E-01 0.29688E-02 0.24335E-03
 0.53172E-04 0.26983E-03 0.31967E-02 0.20831E-01 0.64430E-01 0.10631     0.11661     0.12943     0.15129     0.12944    
 0.11659     0.10632     0.64430E-01 0.20830E-01 0.31970E-02 0.26976E-03 0.11116E-04 0.53186E-04 0.12334E-02 0.12859E-01
 0.51176E-01 0.96740E-01 0.11366     0.12906     0.15234     0.12908     0.11364     0.96746E-01 0.51177E-01 0.12858E-01
 0.12336E-02 0.53172E-04 0.11116E-04 0.53185E-04 0.12334E-02 0.12859E-01 0.51176E-01 0.96740E-01 0.11366     0.12906    
 0.15234     0.12908     0.11364     0.96746E-01 0.51177E-01 0.12858E-01 0.12336E-02 0.53173E-04 0.53186E-04 0.26985E-03
 0.31967E-02 0.20831E-01 0.64429E-01 0.10631     0.11661     0.12942     0.15129     0.12944     0.11659     0.10632    
 0.64430E-01 0.20830E-01 0.31972E-02 0.26983E-03 0.53185E-04 0.24343E-03 0.29685E-02 0.19805E-01 0.61903E-01 0.10246    
 0.11275     0.12691     0.14982     0.12692     0.11274     0.10247     0.61903E-01 0.19805E-01 0.29690E-02 0.24341E-03
 0.12334E-02 0.31967E-02 0.15220E-01 0.50283E-01 0.99252E-01 0.12434     0.11912     0.12846     0.14730     0.12848    
 0.11910     0.12435     0.99250E-01 0.50283E-01 0.15221E-01 0.31967E-02 0.12334E-02 0.29685E-02 0.14040E-01 0.46778E-01
 0.92723E-01 0.11589     0.11153     0.12361     0.14423     0.12363     0.11151     0.11589     0.92720E-01 0.46777E-01
 0.14041E-01 0.29685E-02 0.12859E-01 0.20831E-01 0.50283E-01 0.99128E-01 0.13531     0.13337     0.11829     0.12736    
 0.14113     0.12737     0.11828     0.13338     0.13531     0.99128E-01 0.50284E-01 0.20831E-01 0.12859E-01 0.19805E-01
 0.46778E-01 0.91485E-01 0.12366     0.12031     0.10769     0.12072     0.13670     0.12073     0.10768     0.12031    
 0.12366     0.91484E-01 0.46779E-01 0.19805E-01 0.51176E-01 0.64429E-01 0.99252E-01 0.13531     0.14302     0.12536    
 0.11644     0.12568     0.13223     0.12569     0.11644     0.12536     0.14302     0.13531     0.99253E-01 0.64430E-01
 0.51176E-01 0.61903E-01 0.92723E-01 0.12366     0.12751     0.11000     0.10470     0.11876     0.12782     0.11876    
 0.10470     0.11000     0.12751     0.12366     0.92723E-01 0.61904E-01 0.96740E-01 0.10631     0.12434     0.13337    
 0.12536     0.11540     0.11669     0.12025     0.11991     0.12025     0.11670     0.11540     0.12536     0.13337    
 0.12434     0.10631     0.96740E-01 0.10246     0.11589     0.12031     0.11000     0.10134     0.10680     0.11593    
 0.11830     0.11593     0.10681     0.10134     0.11000     0.12031     0.11589     0.10247     0.11366     0.11661    
 0.11912     0.11829     0.11644     0.11669     0.11582     0.11072     0.10728     0.11072     0.11582     0.11669    
 0.11644     0.11829     0.11912     0.11661     0.11366     0.11275     0.11153     0.10769     0.10470     0.10680    
 0.11103     0.11178     0.11089     0.11178     0.11104     0.10680     0.10470     0.10769     0.11153     0.11275    
 0.12906     0.12942     0.12846     0.12736     0.12568     0.12025     0.11072     0.10238     0.99378E-01 0.10238    
 0.11072     0.12025     0.12569     0.12736     0.12847     0.12943     0.12906     0.12691     0.12361     0.12072    
 0.11876     0.11593     0.11178     0.10887     0.10816     0.10887     0.11179     0.11594     0.11876     0.12072    
 0.12362     0.12691     0.15234     0.15129     0.14730     0.14113     0.13223     0.11991     0.10728     0.99378E-01
 0.97115E-01 0.99380E-01 0.10728     0.11992     0.13223     0.14114     0.14730     0.15129     0.15234     0.14982    
 0.14423     0.13670     0.12782     0.11830     0.11089     0.10816     0.10807     0.10816     0.11090     0.11830    
 0.12783     0.13670     0.14423     0.14982     0.12908     0.12944     0.12848     0.12737     0.12569     0.12025    
 0.11072     0.10238     0.99380E-01 0.10238     0.11072     0.12025     0.12569     0.12737     0.12848     0.12944    
 0.12908     0.12692     0.12363     0.12073     0.11876     0.11593     0.11178     0.10887     0.10816     0.10887    
 0.11179     0.11594     0.11876     0.12073     0.12363     0.12692     0.11364     0.11659     0.11910     0.11828    
 0.11644     0.11670     0.11582     0.11072     0.10728     0.11072     0.11582     0.11670     0.11645     0.11828    
 0.11911     0.11659     0.11364     0.11274     0.11151     0.10768     0.10470     0.10681     0.11104     0.11179    
 0.11090     0.11179     0.11104     0.10681     0.10470     0.10769     0.11152     0.11274     0.96746E-01 0.10632    
 0.12435     0.13338     0.12536     0.11540     0.11669     0.12025     0.11992     0.12025     0.11670     0.11540    
 0.12537     0.13338     0.12435     0.10632     0.96746E-01 0.10247     0.11589     0.12031     0.11000     0.10134    
 0.10680     0.11594     0.11830     0.11594     0.10681     0.10135     0.11001     0.12031     0.11590     0.10247    
 0.51177E-01 0.64430E-01 0.99250E-01 0.13531     0.14302     0.12536     0.11644     0.12569     0.13223     0.12569    
 0.11645     0.12537     0.14303     0.13531     0.99252E-01 0.64430E-01 0.51177E-01 0.61903E-01 0.92720E-01 0.12366    
 0.12751     0.11000     0.10470     0.11876     0.12783     0.11876     0.10470     0.11001     0.12751     0.12366    
 0.92723E-01 0.61904E-01 0.12858E-01 0.20830E-01 0.50283E-01 0.99128E-01 0.13531     0.13337     0.11829     0.12736    
 0.14114     0.12737     0.11828     0.13338     0.13531     0.99130E-01 0.50283E-01 0.20830E-01 0.12858E-01 0.19805E-01
 0.46777E-01 0.91484E-01 0.12366     0.12031     0.10769     0.12072     0.13670     0.12073     0.10769     0.12031    
 0.12366     0.91487E-01 0.46778E-01 0.19805E-01 0.12336E-02 0.31972E-02 0.15221E-01 0.50284E-01 0.99253E-01 0.12434    
 0.11912     0.12847     0.14730     0.12848     0.11911     0.12435     0.99252E-01 0.50283E-01 0.15221E-01 0.31970E-02
 0.12336E-02 0.29690E-02 0.14041E-01 0.46779E-01 0.92723E-01 0.11589     0.11153     0.12362     0.14423     0.12363    
 0.11152     0.11590     0.92723E-01 0.46778E-01 0.14041E-01 0.29688E-02 0.53172E-04 0.26983E-03 0.31967E-02 0.20831E-01
 0.64430E-01 0.10631     0.11661     0.12943     0.15129     0.12944     0.11659     0.10632     0.64430E-01 0.20830E-01
 0.31970E-02 0.26976E-03 0.53173E-04 0.24341E-03 0.29685E-02 0.19805E-01 0.61904E-01 0.10247     0.11275     0.12691    
 0.14982     0.12692     0.11274     0.10247     0.61904E-01 0.19805E-01 0.29688E-02 0.24335E-03 0.73599E-03 0.15632E-02
 0.73651E-02 0.29753E-01 0.72379E-01 0.10591     0.11270     0.12998     0.15358     0.13001     0.11266     0.10592    
 0.72377E-01 0.29752E-01 0.73660E-02 0.15630E-02 0.73599E-03 0.15632E-02 0.73651E-02 0.29753E-01 0.72379E-01 0.10591    
 0.11270     0.12998     0.15358     0.13001     0.11266     0.10592     0.72377E-01 0.29752E-01 0.73659E-02 0.15630E-02
 0.15632E-02 0.29406E-02 0.11382E-01 0.38017E-01 0.80494E-01 0.10768     0.11036     0.12827     0.15192     0.12830    
 0.11033     0.10769     0.80490E-01 0.38015E-01 0.11383E-01 0.29404E-02 0.15632E-02 0.32592E-02 0.12736E-01 0.41775E-01
 0.87316E-01 0.11628     0.11785     0.13259     0.15405     0.13262     0.11782     0.11629     0.87312E-01 0.41773E-01
 0.12738E-01 0.32591E-02 0.73651E-02 0.11382E-01 0.29472E-01 0.66706E-01 0.10463     0.11457     0.10916     0.12736    
 0.14849     0.12737     0.10913     0.11458     0.10462     0.66704E-01 0.29473E-01 0.11382E-01 0.73651E-02 0.12736E-01
 0.34156E-01 0.77174E-01 0.12084     0.13303     0.12423     0.13618     0.15357     0.13620     0.12420     0.13305    
 0.12083     0.77172E-01 0.34157E-01 0.12736E-01 0.29753E-01 0.38017E-01 0.66706E-01 0.10506     0.12408     0.11422    
 0.10821     0.12773     0.14351     0.12773     0.10820     0.11422     0.12407     0.10506     0.66705E-01 0.38016E-01
 0.29753E-01 0.41775E-01 0.77174E-01 0.12459     0.15090     0.14183     0.12926     0.13962     0.15046     0.13963    
 0.12925     0.14183     0.15089     0.12459     0.77173E-01 0.41775E-01 0.72379E-01 0.80494E-01 0.10463     0.12408    
 0.12001     0.10637     0.11047     0.12894     0.13760     0.12894     0.11047     0.10637     0.12000     0.12407    
 0.10463     0.80494E-01 0.72379E-01 0.87316E-01 0.12084     0.15090     0.15342     0.13760     0.13261     0.13899    
 0.14163     0.13899     0.13261     0.13760     0.15342     0.15090     0.12084     0.87316E-01 0.10591     0.10768    
 0.11457     0.11422     0.10637     0.10550     0.11737     0.12866     0.13136     0.12866     0.11737     0.10550    
 0.10637     0.11422     0.11456     0.10768     0.10591     0.11628     0.13303     0.14183     0.13760     0.13233    
 0.13239     0.12945     0.12584     0.12945     0.13240     0.13232     0.13760     0.14182     0.13303     0.11628    
 0.11270     0.11036     0.10916     0.10821     0.11047     0.11737     0.12405     0.12632     0.12633     0.12632    
 0.12405     0.11737     0.11047     0.10820     0.10916     0.11036     0.11270     0.11785     0.12423     0.12926    
 0.13261     0.13239     0.12477     0.11321     0.10766     0.11321     0.12477     0.13239     0.13261     0.12926    
 0.12423     0.11785     0.12998     0.12827     0.12736     0.12773     0.12894     0.12866     0.12632     0.12451    
 0.12414     0.12451     0.12632     0.12866     0.12894     0.12773     0.12736     0.12827     0.12998     0.13259    
 0.13618     0.13962     0.13899     0.12945     0.11321     0.99572E-01 0.94637E-01 0.99572E-01 0.11321     0.12945    
 0.13899     0.13962     0.13618     0.13259     0.15358     0.15192     0.14849     0.14351     0.13760     0.13136    
 0.12633     0.12414     0.12386     0.12415     0.12634     0.13136     0.13760     0.14351     0.14850     0.15192    
 0.15358     0.15405     0.15357     0.15046     0.14163     0.12584     0.10766     0.94637E-01 0.90233E-01 0.94638E-01
 0.10767     0.12585     0.14163     0.15046     0.15357     0.15405     0.13001     0.12830     0.12737     0.12773    
 0.12894     0.12866     0.12632     0.12451     0.12415     0.12451     0.12633     0.12866     0.12894     0.12774    
 0.12738     0.12830     0.13001     0.13262     0.13620     0.13963     0.13899     0.12945     0.11321     0.99572E-01
 0.94638E-01 0.99574E-01 0.11322     0.12945     0.13900     0.13963     0.13620     0.13262     0.11266     0.11033    
 0.10913     0.10820     0.11047     0.11737     0.12405     0.12632     0.12634     0.12633     0.12405     0.11738    
 0.11048     0.10820     0.10914     0.11033     0.11266     0.11782     0.12420     0.12925     0.13261     0.13240    
 0.12477     0.11321     0.10767     0.11322     0.12478     0.13240     0.13262     0.12925     0.12420     0.11782    
 0.10592     0.10769     0.11458     0.11422     0.10637     0.10550     0.11737     0.12866     0.13136     0.12866    