 vasp.5.3.2 13Sep12 (build Mar 19 2013 12:21:59) complex                        
  
 executed on             LinuxIFC date 2013.05.17  10:15:21
 running on    8 total cores
 distrk:  each k-point on    8 cores,    1 groups
 distr:  one band on NCORES_PER_BAND=   4 cores,    2 groups


--------------------------------------------------------------------------------------------------------


 INCAR:
 POTCAR:  PAW_PBE Rh 06Sep2000                    
 POTCAR:  PAW_PBE Sn_d 06Sep2000                  
 POTCAR:  PAW_PBE V 08Apr2002                     
 POTCAR:  PAW_PBE Rh 06Sep2000                    
   VRHFIN =Rh: s1 d8                                                            
   LEXCH  = PE                                                                  
   EATOM  =   616.5493 eV,   45.3151 Ry                                         
                                                                                
   TITEL  = PAW_PBE Rh 06Sep2000                                                
   LULTRA =        F    use ultrasoft PP ?                                      
   IUNSCR =        1    unscreen: 0-lin 1-nonlin 2-no                           
   RPACOR =    2.170    partial core radius                                     
   POMASS =  102.906; ZVAL   =    9.000    mass and valenz                      
   RCORE  =    2.500    outmost cutoff radius                                   
   RWIGS  =    2.650; RWIGS  =    1.402    wigner-seitz radius (au A)           
   ENMAX  =  229.000; ENMIN  =  171.750 eV                                      
   RCLOC  =    1.827    cutoff for local pot                                    
   LCOR   =        T    correct aug charges                                     
   LPAW   =        T    paw PP                                                  
   EAUG   =  374.513                                                            
   DEXC   =    -.066                                                            
   RMAX   =    3.047    core radius for proj-oper                               
   RAUG   =    1.300    factor for augmentation sphere                          
   RDEP   =    2.536    radius for radial grids                                 
   QCUT   =   -4.103; QGAM   =    8.205    optimization parameters              
                                                                                
   Description                                                                  
     l     E      TYP  RCUT    TYP  RCUT                                        
     2   .000     23  2.500                                                     
     2   .000     23  2.500                                                     
     0   .000     23  2.400                                                     
     0   .000     23  2.400                                                     
     1  -.200     23  2.500                                                     
     1   .000     23  2.500                                                     
     3   .000      7   .000                                                     
  local pseudopotential read in
  partial core-charges read in
  atomic valenz-charges read in
  non local Contribution for L=           2  read in
    real space projection operators read in
  non local Contribution for L=           2  read in
    real space projection operators read in
  non local Contribution for L=           0  read in
    real space projection operators read in
  non local Contribution for L=           0  read in
    real space projection operators read in
  non local Contribution for L=           1  read in
    real space projection operators read in
  non local Contribution for L=           1  read in
    real space projection operators read in
    PAW grid and wavefunctions read in
 
   number of l-projection  operators is LMAX  =           6
   number of lm-projection operators is LMMAX =          18
 
 POTCAR:  PAW_PBE Sn_d 06Sep2000                  
   VRHFIN =Sn: s2p2                                                             
   LEXCH  = PE                                                                  
   EATOM  =  1893.0782 eV,  139.1373 Ry                                         
                                                                                
   TITEL  = PAW_PBE Sn_d 06Sep2000                                              
   LULTRA =        F    use ultrasoft PP ?                                      
   IUNSCR =        1    unscreen: 0-lin 1-nonlin 2-no                           
   RPACOR =    2.300    partial core radius                                     
   POMASS =  118.710; ZVAL   =   14.000    mass and valenz                      
   RCORE  =    2.500    outmost cutoff radius                                   
   RWIGS  =    2.960; RWIGS  =    1.566    wigner-seitz radius (au A)           
   ENMAX  =  241.090; ENMIN  =  180.817 eV                                      
   ICORE  =        3    local potential                                         
   LCOR   =        T    correct aug charges                                     
   LPAW   =        T    paw PP                                                  
   EAUG   =  439.825                                                            
   DEXC   =    -.001                                                            
   RMAX   =    2.969    core radius for proj-oper                               
   RAUG   =    1.300    factor for augmentation sphere                          
   RDEP   =    2.659    radius for radial grids                                 
   QCUT   =   -4.209; QGAM   =    8.419    optimization parameters              
                                                                                
   Description                                                                  
     l     E      TYP  RCUT    TYP  RCUT                                        
     2   .000     23  2.500                                                     
     2  -.400     23  2.500                                                     
     0   .000     23  2.500                                                     
     0  1.000     23  2.500                                                     
     1   .000     23  2.500                                                     
     1   .000     23  2.500                                                     
     3  -.100      7  2.500                                                     
  local pseudopotential read in
  partial core-charges read in
  atomic valenz-charges read in
  non local Contribution for L=           2  read in
    real space projection operators read in
  non local Contribution for L=           2  read in
    real space projection operators read in
  non local Contribution for L=           0  read in
    real space projection operators read in
  non local Contribution for L=           0  read in
    real space projection operators read in
  non local Contribution for L=           1  read in
    real space projection operators read in
  non local Contribution for L=           1  read in
    real space projection operators read in
    PAW grid and wavefunctions read in
 
   number of l-projection  operators is LMAX  =           6
   number of lm-projection operators is LMMAX =          18
 
 POTCAR:  PAW_PBE V 08Apr2002                     
   VRHFIN =V: p6 d4 s1                                                          
   LEXCH  = PE                                                                  
   EATOM  =   170.8679 eV,   12.5584 Ry                                         
                                                                                
   TITEL  = PAW_PBE V 08Apr2002                                                 
   LULTRA =        F    use ultrasoft PP ?                                      
   IUNSCR =        1    unscreen: 0-lin 1-nonlin 2-no                           
   RPACOR =    2.000    partial core radius                                     
   POMASS =   50.941; ZVAL   =    5.000    mass and valenz                      
   RCORE  =    2.700    outmost cutoff radius                                   
   RWIGS  =    2.500; RWIGS  =    1.323    wigner-seitz radius (au A)           
   ENMAX  =  192.543; ENMIN  =  144.408 eV                                      
   RCLOC  =    1.779    cutoff for local pot                                    
   LCOR   =        T    correct aug charges                                     
   LPAW   =        T    paw PP                                                  
   EAUG   =  358.662                                                            
   DEXC   =    -.034                                                            
   RMAX   =    3.323    core radius for proj-oper                               
   RAUG   =    1.300    factor for augmentation sphere                          
   RDEP   =    2.762    radius for radial grids                                 
   QCUT   =   -3.762; QGAM   =    7.524    optimization parameters              
                                                                                
   Description                                                                  
     l     E      TYP  RCUT    TYP  RCUT                                        
     2   .000     23  2.700                                                     
     2   .000     23  2.700                                                     
     0   .000     23  2.700                                                     
     0  2.000     23  2.700                                                     
     1   .000     23  2.700                                                     
     1  2.000     23  2.700                                                     
     3   .000      7   .000                                                     
  local pseudopotential read in
  partial core-charges read in
  atomic valenz-charges read in
  non local Contribution for L=           2  read in
    real space projection operators read in
  non local Contribution for L=           2  read in
    real space projection operators read in
  non local Contribution for L=           0  read in
    real space projection operators read in
  non local Contribution for L=           0  read in
    real space projection operators read in
  non local Contribution for L=           1  read in
    real space projection operators read in
  non local Contribution for L=           1  read in
    real space projection operators read in
    PAW grid and wavefunctions read in
 
   number of l-projection  operators is LMAX  =           6
   number of lm-projection operators is LMMAX =          18
 
PAW_PBE Rh 06Sep2000                    :
 energy of atom  1       EATOM= -616.5493
 kinetic energy error for atom=    0.0024 (will be added to EATOM!!)
PAW_PBE Sn_d 06Sep2000                  :
 energy of atom  2       EATOM=-1893.0782
 kinetic energy error for atom=    0.0026 (will be added to EATOM!!)
PAW_PBE V 08Apr2002                     :
 energy of atom  3       EATOM= -170.8679
 kinetic energy error for atom=    0.0002 (will be added to EATOM!!)
 
 
 POSCAR: Rh Sn V                                 
  positions in direct lattice
  No initial velocities read in
 exchange correlation table for  LEXCH =        8
   RHO(1)=    0.500       N(1)  =     2000
   RHO(2)=  100.500       N(2)  =     4000
 


--------------------------------------------------------------------------------------------------------


 ion  position               nearest neighbor table
   1  0.000  0.500  0.500-  14 2.74  11 2.74  12 2.74  13 2.74  10 2.74  15 2.74  16 2.74   9 2.74
                             5 2.85   6 2.85   5 2.85   6 2.85
   2  0.500  0.000  0.500-  13 2.74  11 2.74  12 2.74  14 2.74   9 2.74  15 2.74  16 2.74  10 2.74
                             5 2.85   6 2.85   5 2.85   6 2.85
   3  0.500  0.000  0.000-  13 2.74  11 2.74   9 2.74  15 2.74  12 2.74  14 2.74  16 2.74  10 2.74
                             7 2.85   8 2.85   7 2.85   8 2.85
   4  0.000  0.500  0.000-  14 2.74  11 2.74  10 2.74  15 2.74  12 2.74  13 2.74  16 2.74   9 2.74
                             7 2.85   8 2.85   7 2.85   8 2.85
   5  0.500  0.500  0.500-  12 2.74  13 2.74  14 2.74  11 2.74  16 2.74  10 2.74   9 2.74  15 2.74
                             1 2.85   2 2.85   2 2.85   1 2.85
   6  0.000  0.000  0.500-  11 2.74  13 2.74  14 2.74  12 2.74  15 2.74  10 2.74   9 2.74  16 2.74
                             1 2.85   2 2.85   2 2.85   1 2.85
   7  0.500  0.500  0.000-  12 2.74  13 2.74  14 2.74  11 2.74  16 2.74  10 2.74   9 2.74  15 2.74
                             3 2.85   4 2.85   3 2.85   4 2.85
   8  0.000  0.000  0.000-  11 2.74  15 2.74  14 2.74  13 2.74   9 2.74  10 2.74  12 2.74  16 2.74
                             3 2.85   4 2.85   3 2.85   4 2.85
   9  0.250  0.750  0.750-   2 2.74   6 2.74   3 2.74   8 2.74   5 2.74   1 2.74   7 2.74   4 2.74
                            15 2.85  16 2.85  15 2.85  16 2.85
  10  0.750  0.250  0.750-   1 2.74   6 2.74   4 2.74   8 2.74   5 2.74   2 2.74   7 2.74   3 2.74
                            15 2.85  16 2.85  15 2.85  16 2.85
  11  0.750  0.750  0.250-   6 2.74   2 2.74   1 2.74   5 2.74   8 2.74   4 2.74   3 2.74   7 2.74
                            13 2.85  14 2.85  14 2.85  13 2.85
  12  0.250  0.250  0.250-   5 2.74   2 2.74   1 2.74   6 2.74   7 2.74   4 2.74   3 2.74   8 2.74
                            13 2.85  14 2.85  14 2.85  13 2.85
  13  0.250  0.750  0.250-   2 2.74   6 2.74   5 2.74   1 2.74   3 2.74   8 2.74   7 2.74   4 2.74
                            11 2.85  12 2.85  11 2.85  12 2.85
  14  0.750  0.250  0.250-   1 2.74   6 2.74   5 2.74   2 2.74   4 2.74   8 2.74   7 2.74   3 2.74
                            11 2.85  12 2.85  11 2.85  12 2.85
  15  0.750  0.750  0.750-   6 2.74   8 2.74   1 2.74   2 2.74   3 2.74   4 2.74   5 2.74   7 2.74
                             9 2.85  10 2.85  10 2.85   9 2.85
  16  0.250  0.250  0.750-   5 2.74   2 2.74   1 2.74   6 2.74   7 2.74   4 2.74   3 2.74   8 2.74
                             9 2.85  10 2.85  10 2.85   9 2.85
 
  LATTYP: Found a simple tetragonal cell.
 ALAT       =     5.7079180000
 C/A-ratio  =     1.2980128656
  
  Lattice vectors:
  
 A1 = (   5.7079180000,   0.0000000000,   0.0000000000)
 A2 = (   0.0000000000,   5.7079180000,   0.0000000000)
 A3 = (   0.0000000000,   0.0000000000,   7.4089510000)


Analysis of symmetry for initial positions (statically):
=====================================================================
 Subroutine PRICEL returns following result:
 
  LATTYP: Found a body centered tetragonal cell.
 ALAT       =     4.0361061237
 C/A-ratio  =     1.8356680357
  
  Lattice vectors:
  
 A1 = (   0.0000000000,  -2.8539580097,   3.7044808070)
 A2 = (   0.0000000000,   2.8539580097,   3.7044701930)
 A3 = (  -2.8539580097,   0.0000000000,  -3.7044701930)
 
   4 primitive cells build up your supercell.
 

 Routine SETGRP: Setting up the symmetry group for a 
 simple tetragonal supercell.


 Subroutine GETGRP returns: Found 16 space group operations
 (whereof  8 operations were pure point group operations)
 out of a pool of 16 trial point group operations.


The static configuration has the point symmetry D_2d.
 The point group associated with its full space group is D_4h.


Analysis of symmetry for dynamics (positions and initial velocities):
=====================================================================
 Subroutine PRICEL returns following result:
 
  LATTYP: Found a body centered tetragonal cell.
 ALAT       =     4.0361061237
 C/A-ratio  =     1.8356680357
  
  Lattice vectors:
  
 A1 = (   0.0000000000,  -2.8539580097,   3.7044808070)
 A2 = (   0.0000000000,   2.8539580097,   3.7044701930)
 A3 = (  -2.8539580097,   0.0000000000,  -3.7044701930)
 
   4 primitive cells build up your supercell.
 

 Routine SETGRP: Setting up the symmetry group for a 
 simple tetragonal supercell.


 Subroutine GETGRP returns: Found 16 space group operations
 (whereof  8 operations were pure point group operations)
 out of a pool of 16 trial point group operations.


The dynamic configuration has the point symmetry D_2d.
 The point group associated with its full space group is D_4h.


Analysis of magnetic symmetry:
=====================================================================

 Subroutine MAGSYM returns: Found 16 space group operations
 (whereof  8 operations were pure point group operations)
 out of a pool of 16 trial space group operations
 (whereof  8 operations were pure point group operations)
 and found also     4 'primitive' translations


The magnetic configuration has the point symmetry D_2d.
 The point group associated with its full space group is D_4h.
 
 
 KPOINTS: KPOINTS                                 

Automatic generation of k-mesh.
Space group operators:
 irot       det(A)        alpha          n_x          n_y          n_z        tau_x        tau_y        tau_z
    1     1.000000     0.000000     1.000000     0.000000     0.000000     0.000000     0.000000     0.000000
    2    -1.000000    90.000000     0.000000     0.000000    -1.000000     0.000000     0.000000     0.000000
    3     1.000000   180.000000     0.000000     0.000000     1.000000     0.000000     0.000000     0.000000
    4    -1.000000    90.000000     0.000000     0.000000     1.000000     0.000000     0.000000     0.000000
    5     1.000000   180.000000     0.000000     1.000000     0.000000     0.000000     0.000000     0.000000
    6    -1.000000   180.000000     0.707107     0.707107     0.000000     0.000000     0.000000     0.000000
    7     1.000000   180.000000     1.000000     0.000000     0.000000     0.000000     0.000000     0.000000
    8    -1.000000   180.000000     0.707107    -0.707107     0.000000     0.000000     0.000000     0.000000
    9    -1.000000     0.000000     1.000000     0.000000     0.000000    -0.499999     0.000000     0.000001
   10     1.000000    90.000000     0.000000     0.000000    -1.000000    -0.499999     0.000000     0.000001
   11    -1.000000   180.000000     0.000000     0.000000     1.000000     0.000000     0.000000     0.500001
   12     1.000000    90.000000     0.000000     0.000000     1.000000     0.000000     0.000000     0.500001
   13    -1.000000   180.000000     0.000000     1.000000     0.000000     0.000000     0.000000     0.500001
   14     1.000000   180.000000     0.707107     0.707107     0.000000     0.000000     0.000000     0.500001
   15    -1.000000   180.000000     1.000000     0.000000     0.000000    -0.499999     0.000000     0.000001
   16     1.000000   180.000000     0.707107    -0.707107     0.000000    -0.499999     0.000000     0.000001
 
 Subroutine IBZKPT returns following result:
 ===========================================
 
 Found     60 irreducible k-points:
 
 Following reciprocal coordinates:
            Coordinates               Weight
  0.000000  0.000000  0.000000      1.000000
  0.125000  0.000000  0.000000      4.000000
  0.250000  0.000000  0.000000      4.000000
  0.375000  0.000000  0.000000      4.000000
  0.500000  0.000000  0.000000      2.000000
  0.125000  0.125000  0.000000      4.000000
  0.250000  0.125000  0.000000      8.000000
  0.375000  0.125000  0.000000      8.000000
  0.500000  0.125000  0.000000      4.000000
  0.250000  0.250000  0.000000      4.000000
  0.375000  0.250000  0.000000      8.000000
  0.500000  0.250000  0.000000      4.000000
  0.375000  0.375000  0.000000      4.000000
  0.500000  0.375000  0.000000      4.000000
  0.500000  0.500000  0.000000      1.000000
  0.000000  0.000000  0.166667      2.000000
  0.125000  0.000000  0.166667      8.000000
  0.250000  0.000000  0.166667      8.000000
  0.375000  0.000000  0.166667      8.000000
  0.500000  0.000000  0.166667      4.000000
  0.125000  0.125000  0.166667      8.000000
  0.250000  0.125000  0.166667     16.000000
  0.375000  0.125000  0.166667     16.000000
  0.500000  0.125000  0.166667      8.000000
  0.250000  0.250000  0.166667      8.000000
  0.375000  0.250000  0.166667     16.000000
  0.500000  0.250000  0.166667      8.000000
  0.375000  0.375000  0.166667      8.000000
  0.500000  0.375000  0.166667      8.000000
  0.500000  0.500000  0.166667      2.000000
  0.000000  0.000000  0.333333      2.000000
  0.125000  0.000000  0.333333      8.000000
  0.250000  0.000000  0.333333      8.000000
  0.375000  0.000000  0.333333      8.000000
  0.500000  0.000000  0.333333      4.000000
  0.125000  0.125000  0.333333      8.000000
  0.250000  0.125000  0.333333     16.000000
  0.375000  0.125000  0.333333     16.000000
  0.500000  0.125000  0.333333      8.000000
  0.250000  0.250000  0.333333      8.000000
  0.375000  0.250000  0.333333     16.000000
  0.500000  0.250000  0.333333      8.000000
  0.375000  0.375000  0.333333      8.000000
  0.500000  0.375000  0.333333      8.000000
  0.500000  0.500000  0.333333      2.000000
  0.000000  0.000000  0.500000      1.000000
  0.125000  0.000000  0.500000      4.000000
  0.250000  0.000000  0.500000      4.000000
  0.375000  0.000000  0.500000      4.000000
  0.500000  0.000000  0.500000      2.000000
  0.125000  0.125000  0.500000      4.000000
  0.250000  0.125000  0.500000      8.000000
  0.375000  0.125000  0.500000      8.000000
  0.500000  0.125000  0.500000      4.000000
  0.250000  0.250000  0.500000      4.000000
  0.375000  0.250000  0.500000      8.000000
  0.500000  0.250000  0.500000      4.000000
  0.375000  0.375000  0.500000      4.000000
  0.500000  0.375000  0.500000      4.000000
  0.500000  0.500000  0.500000      1.000000
 
 Following cartesian coordinates:
            Coordinates               Weight
  0.000000  0.000000  0.000000      1.000000
  0.021899  0.000000  0.000000      4.000000
  0.043799  0.000000  0.000000      4.000000
  0.065698  0.000000  0.000000      4.000000
  0.087598  0.000000  0.000000      2.000000
  0.021899  0.021899  0.000000      4.000000
  0.043799  0.021899  0.000000      8.000000
  0.065698  0.021899  0.000000      8.000000
  0.087598  0.021899  0.000000      4.000000
  0.043799  0.043799  0.000000      4.000000
  0.065698  0.043799  0.000000      8.000000
  0.087598  0.043799  0.000000      4.000000
  0.065698  0.065698  0.000000      4.000000
  0.087598  0.065698  0.000000      4.000000
  0.087598  0.087598  0.000000      1.000000
  0.000000  0.000000  0.022495      2.000000
  0.021899  0.000000  0.022495      8.000000
  0.043799  0.000000  0.022495      8.000000
  0.065698  0.000000  0.022495      8.000000
  0.087598  0.000000  0.022495      4.000000
  0.021899  0.021899  0.022495      8.000000
  0.043799  0.021899  0.022495     16.000000
  0.065698  0.021899  0.022495     16.000000
  0.087598  0.021899  0.022495      8.000000
  0.043799  0.043799  0.022495      8.000000
  0.065698  0.043799  0.022495     16.000000
  0.087598  0.043799  0.022495      8.000000
  0.065698  0.065698  0.022495      8.000000
  0.087598  0.065698  0.022495      8.000000
  0.087598  0.087598  0.022495      2.000000
  0.000000  0.000000  0.044991      2.000000
  0.021899  0.000000  0.044991      8.000000
  0.043799  0.000000  0.044991      8.000000
  0.065698  0.000000  0.044991      8.000000
  0.087598  0.000000  0.044991      4.000000
  0.021899  0.021899  0.044991      8.000000
  0.043799  0.021899  0.044991     16.000000
  0.065698  0.021899  0.044991     16.000000
  0.087598  0.021899  0.044991      8.000000
  0.043799  0.043799  0.044991      8.000000
  0.065698  0.043799  0.044991     16.000000
  0.087598  0.043799  0.044991      8.000000
  0.065698  0.065698  0.044991      8.000000
  0.087598  0.065698  0.044991      8.000000
  0.087598  0.087598  0.044991      2.000000
  0.000000  0.000000  0.067486      1.000000
  0.021899  0.000000  0.067486      4.000000
  0.043799  0.000000  0.067486      4.000000
  0.065698  0.000000  0.067486      4.000000
  0.087598  0.000000  0.067486      2.000000
  0.021899  0.021899  0.067486      4.000000
  0.043799  0.021899  0.067486      8.000000
  0.065698  0.021899  0.067486      8.000000
  0.087598  0.021899  0.067486      4.000000
  0.043799  0.043799  0.067486      4.000000
  0.065698  0.043799  0.067486      8.000000
  0.087598  0.043799  0.067486      4.000000
  0.065698  0.065698  0.067486      4.000000
  0.087598  0.065698  0.067486      4.000000
  0.087598  0.087598  0.067486      1.000000
 
 TETIRR: Found    576 inequivalent tetrahedra from     2304


--------------------------------------------------------------------------------------------------------




 Dimension of arrays:
   k-points           NKPTS =     60   k-points in BZ     NKDIM =     60   number of bands    NBANDS=    118
   number of dos      NEDOS =    301   number of ions     NIONS =     16
   non local maximal  LDIM  =      6   non local SUM 2l+1 LMDIM =     18
   total plane-waves  NPLWV =  43008
   max r-space proj   IRMAX =      1   max aug-charges    IRDMAX=   2712
   dimension x,y,z NGX =    32 NGY =   32 NGZ =   42
   dimension x,y,z NGXF=    40 NGYF=   40 NGZF=   50
   support grid    NGXF=    40 NGYF=   40 NGZF=   50
   ions per type =               8   4   4
 NGX,Y,Z   is equivalent  to a cutoff of   9.32,  9.32,  9.42 a.u.
 NGXF,Y,Z  is equivalent  to a cutoff of  11.65, 11.65, 11.22 a.u.


 I would recommend the setting:
   dimension x,y,z NGX =    32 NGY =   32 NGZ =   41
 SYSTEM =  unknown system                          
 POSCAR =  Rh Sn V                                 

 Startparameter for this run:
   NWRITE =      2    write-flag & timer
   PREC   = med       normal or accurate (medium, high low for compatibility)
   ISTART =      0    job   : 0-new  1-cont  2-samecut
   ICHARG =      1    charge: 1-file 2-atom 10-const
   ISPIN  =      2    spin polarized calculation?
   LNONCOLLINEAR =      F non collinear calculations
   LSORBIT =      F    spin-orbit coupling
   INIWAV =      1    electr: 0-lowe 1-rand  2-diag
   LASPH  =      F    aspherical Exc in radial PAW
   METAGGA=      F    non-selfconsistent MetaGGA calc.

 Electronic Relaxation 1
   ENCUT  =  520.0 eV  38.22 Ry    6.18 a.u.  10.61 10.61 13.78*2*pi/ulx,y,z
   ENINI  =  520.0     initial cutoff
   ENAUG  =  439.8 eV  augmentation charge cutoff
   NELM   =     60;   NELMIN=  2; NELMDL=  0     # of ELM steps 
   EDIFF  = 0.1E-03   stopping-criterion for ELM
   LREAL  =      F    real-space projection
   NLSPLINE    = F    spline interpolate recip. space projectors
   LCOMPAT=      F    compatible to vasp.4.4
   GGA_COMPAT  = T    GGA compatible to vasp.4.4-vasp.4.6
   LMAXPAW     = -100 max onsite density
   LMAXMIX     =    2 max onsite mixed and CHGCAR
   VOSKOWN=      0    Vosko Wilk Nusair interpolation
   ROPT   =    0.00000   0.00000   0.00000
 Ionic relaxation
   EDIFFG = 0.1E-02   stopping-criterion for IOM
   NSW    =      0    number of steps for IOM
   NBLOCK =      1;   KBLOCK =      1    inner block; outer block 
   IBRION =     -1    ionic relax: 0-MD 1-quasi-New 2-CG
   NFREE  =      0    steps in history (QN), initial steepest desc. (CG)
   ISIF   =      2    stress and relaxation
   IWAVPR =     10    prediction:  0-non 1-charg 2-wave 3-comb
   ISYM   =      1    0-nonsym 1-usesym 2-fastsym
   LCORR  =      T    Harris-Foulkes like correction to forces

   POTIM  = 0.5000    time-step for ionic-motion
   TEIN   =    0.0    initial temperature
   TEBEG  =    0.0;   TEEND  =   0.0 temperature during run
   SMASS  =  -3.00    Nose mass-parameter (am)
   estimated Nose-frequenzy (Omega)   =  0.10E-29 period in steps =****** mass=  -0.745E-27a.u.
   SCALEE = 1.0000    scale energy and forces
   NPACO  =    256;   APACO  = 16.0  distance and # of slots for P.C.
   PSTRESS=    0.0 pullay stress

  Mass of Ions in am
   POMASS = 102.91118.71 50.94
  Ionic Valenz
   ZVAL   =   9.00 14.00  5.00
  Atomic Wigner-Seitz radii
   RWIGS  =  -1.00 -1.00 -1.00
  virtual crystal weights 
   VCA    =   1.00  1.00  1.00
   NELECT =     148.0000    total number of electrons
   NUPDOWN=      -1.0000    fix difference up-down

 DOS related values:
   EMIN   =  10.00;   EMAX   =-10.00  energy-range for DOS
   EFERMI =   0.00
   ISMEAR =    -5;   SIGMA  =   0.20  broadening in eV -4-tet -1-fermi 0-gaus

 Electronic relaxation 2 (details)
   IALGO  =     68    algorithm
   LDIAG  =      T    sub-space diagonalisation (order eigenvalues)
   LSUBROT=      T    optimize rotation matrix (better conditioning)
   TURBO    =      0    0=normal 1=particle mesh
   IRESTART =      0    0=no restart 2=restart with 2 vectors
   NREBOOT  =      0    no. of reboots
   NMIN     =      0    reboot dimension
   EREF     =   0.00    reference energy to select bands
   IMIX   =      4    mixing-type and parameters
     AMIX     =   0.40;   BMIX     =  1.00
     AMIX_MAG =   1.60;   BMIX_MAG =  1.00
     AMIN     =   0.10
     WC   =   100.;   INIMIX=   1;  MIXPRE=   1;  MAXMIX= -45

 Intra band minimization:
   WEIMIN = 0.0000     energy-eigenvalue tresh-hold
   EBREAK =  0.21E-06  absolut break condition
   DEPER  =   0.30     relativ break condition  

   TIME   =   0.40     timestep for ELM

  volume/ion in A,a.u.               =      15.09       101.81
  Fermi-wavevector in a.u.,A,eV,Ry     =   1.390779  2.628191 26.317276  1.934265
  Thomas-Fermi vector in A             =   2.514681
 
 Write flags
   LWAVE  =      F    write WAVECAR
   LCHARG =      T    write CHGCAR
   LVTOT  =      F    write LOCPOT, total local potential
   LVHAR  =      T    write LOCPOT, Hartree potential only
   LELF   =      T    write electronic localiz. function (ELF)
   LORBIT =     11    0 simple, 1 ext, 2 COOP (PROOUT)


 Dipole corrections
   LMONO  =      F    monopole corrections only (constant potential shift)
   LDIPOL =      F    correct potential (dipole corrections)
   IDIPOL =      0    1-x, 2-y, 3-z, 4-all directions 
   EPSILON=  1.0000000 bulk dielectric constant

 Exchange correlation treatment:
   GGA     =    --    GGA type
   LEXCH   =     8    internal setting for exchange type
   VOSKOWN=      0    Vosko Wilk Nusair interpolation
   LHFCALC =     F    Hartree Fock is set to
   LHFONE  =     F    Hartree Fock one center treatment
   AEXX    =    0.0000 exact exchange contribution

 Linear response parameters
   LEPSILON=     F    determine dielectric tensor
   LRPA    =     F    only Hartree local field effects (RPA)
   LNABLA  =     F    use nabla operator in PAW spheres
   LVEL    =     F    velocity operator in full k-point grid
   LINTERFAST=   F  fast interpolation
   KINTER  =     0    interpolate to denser k-point grid
   CSHIFT  =0.1000    complex shift for real part using Kramers Kronig
   OMEGAMAX=  -1.0    maximum frequency
   DEG_THRESHOLD= 0.2000000E-02 threshold for treating states as degnerate
   RTIME   =    0.100 relaxation time in fs

 Orbital magnetization related:
   ORBITALMAG=     F  switch on orbital magnetization
   LCHIMAG   =     F  perturbation theory with respect to B field
   DQ        =  0.001000  dq finite difference perturbation B field



--------------------------------------------------------------------------------------------------------


 Static calculation
 charge density and potential will be updated during run
 spin polarized calculation
 RMM-DIIS sequential band-by-band and
  variant of blocked Davidson during initial phase
 perform sub-space diagonalisation
    before iterative eigenvector-optimisation
 modified Broyden-mixing scheme, WC =      100.0
 initial mixing is a Kerker type mixing with AMIX =  0.4000 and BMIX =      1.0000
 Hartree-type preconditioning will be used
 using additional bands           44
 reciprocal scheme for non local part
 use partial core corrections
 calculate Harris-corrections to forces 
   (improved forces if not selfconsistent)
 use gradient corrections 
 use of overlap-Matrix (Vanderbilt PP)
 Fermi weights with tetrahedron method with Bloechl corrections


--------------------------------------------------------------------------------------------------------


  energy-cutoff  :      520.00
  volume of cell :      241.39
      direct lattice vectors                 reciprocal lattice vectors
     5.707918000  0.000000000  0.000000000     0.175195229  0.000000000  0.000000000
     0.000000000  5.707918000  0.000000000     0.000000000  0.175195229  0.000000000
     0.000000000  0.000000000  7.408951000     0.000000000  0.000000000  0.134971874

  length of vectors
     5.707918000  5.707918000  7.408951000     0.175195229  0.175195229  0.134971874


 
 k-points in units of 2pi/SCALE and weight: KPOINTS                                 
   0.00000000  0.00000000  0.00000000       0.003
   0.02189940  0.00000000  0.00000000       0.010
   0.04379881  0.00000000  0.00000000       0.010
   0.06569821  0.00000000  0.00000000       0.010
   0.08759761  0.00000000  0.00000000       0.005
   0.02189940  0.02189940  0.00000000       0.010
   0.04379881  0.02189940  0.00000000       0.021
   0.06569821  0.02189940  0.00000000       0.021
   0.08759761  0.02189940  0.00000000       0.010
   0.04379881  0.04379881  0.00000000       0.010
   0.06569821  0.04379881  0.00000000       0.021
   0.08759761  0.04379881  0.00000000       0.010
   0.06569821  0.06569821  0.00000000       0.010
   0.08759761  0.06569821  0.00000000       0.010
   0.08759761  0.08759761  0.00000000       0.003
   0.00000000  0.00000000  0.02249531       0.005
   0.02189940  0.00000000  0.02249531       0.021
   0.04379881  0.00000000  0.02249531       0.021
   0.06569821  0.00000000  0.02249531       0.021
   0.08759761  0.00000000  0.02249531       0.010
   0.02189940  0.02189940  0.02249531       0.021
   0.04379881  0.02189940  0.02249531       0.042
   0.06569821  0.02189940  0.02249531       0.042
   0.08759761  0.02189940  0.02249531       0.021
   0.04379881  0.04379881  0.02249531       0.021
   0.06569821  0.04379881  0.02249531       0.042
   0.08759761  0.04379881  0.02249531       0.021
   0.06569821  0.06569821  0.02249531       0.021
   0.08759761  0.06569821  0.02249531       0.021
   0.08759761  0.08759761  0.02249531       0.005
   0.00000000  0.00000000  0.04499062       0.005
   0.02189940  0.00000000  0.04499062       0.021
   0.04379881  0.00000000  0.04499062       0.021
   0.06569821  0.00000000  0.04499062       0.021
   0.08759761  0.00000000  0.04499062       0.010
   0.02189940  0.02189940  0.04499062       0.021
   0.04379881  0.02189940  0.04499062       0.042
   0.06569821  0.02189940  0.04499062       0.042
   0.08759761  0.02189940  0.04499062       0.021
   0.04379881  0.04379881  0.04499062       0.021
   0.06569821  0.04379881  0.04499062       0.042
   0.08759761  0.04379881  0.04499062       0.021
   0.06569821  0.06569821  0.04499062       0.021
   0.08759761  0.06569821  0.04499062       0.021
   0.08759761  0.08759761  0.04499062       0.005
   0.00000000  0.00000000  0.06748594       0.003
   0.02189940  0.00000000  0.06748594       0.010
   0.04379881  0.00000000  0.06748594       0.010
   0.06569821  0.00000000  0.06748594       0.010
   0.08759761  0.00000000  0.06748594       0.005
   0.02189940  0.02189940  0.06748594       0.010
   0.04379881  0.02189940  0.06748594       0.021
   0.06569821  0.02189940  0.06748594       0.021
   0.08759761  0.02189940  0.06748594       0.010
   0.04379881  0.04379881  0.06748594       0.010
   0.06569821  0.04379881  0.06748594       0.021
   0.08759761  0.04379881  0.06748594       0.010
   0.06569821  0.06569821  0.06748594       0.010
   0.08759761  0.06569821  0.06748594       0.010
   0.08759761  0.08759761  0.06748594       0.003
 
 k-points in reciprocal lattice and weights: KPOINTS                                 
   0.00000000  0.00000000  0.00000000       0.003
   0.12500000  0.00000000  0.00000000       0.010
   0.25000000  0.00000000  0.00000000       0.010
   0.37500000  0.00000000  0.00000000       0.010
   0.50000000  0.00000000  0.00000000       0.005
   0.12500000  0.12500000  0.00000000       0.010
   0.25000000  0.12500000  0.00000000       0.021
   0.37500000  0.12500000  0.00000000       0.021
   0.50000000  0.12500000  0.00000000       0.010
   0.25000000  0.25000000  0.00000000       0.010
   0.37500000  0.25000000  0.00000000       0.021
   0.50000000  0.25000000  0.00000000       0.010
   0.37500000  0.37500000  0.00000000       0.010
   0.50000000  0.37500000  0.00000000       0.010
   0.50000000  0.50000000  0.00000000       0.003
   0.00000000  0.00000000  0.16666667       0.005
   0.12500000  0.00000000  0.16666667       0.021
   0.25000000  0.00000000  0.16666667       0.021
   0.37500000  0.00000000  0.16666667       0.021
   0.50000000  0.00000000  0.16666667       0.010
   0.12500000  0.12500000  0.16666667       0.021
   0.25000000  0.12500000  0.16666667       0.042
   0.37500000  0.12500000  0.16666667       0.042
   0.50000000  0.12500000  0.16666667       0.021
   0.25000000  0.25000000  0.16666667       0.021
   0.37500000  0.25000000  0.16666667       0.042
   0.50000000  0.25000000  0.16666667       0.021
   0.37500000  0.37500000  0.16666667       0.021
   0.50000000  0.37500000  0.16666667       0.021
   0.50000000  0.50000000  0.16666667       0.005
   0.00000000  0.00000000  0.33333333       0.005
   0.12500000  0.00000000  0.33333333       0.021
   0.25000000  0.00000000  0.33333333       0.021
   0.37500000  0.00000000  0.33333333       0.021
   0.50000000  0.00000000  0.33333333       0.010
   0.12500000  0.12500000  0.33333333       0.021
   0.25000000  0.12500000  0.33333333       0.042
   0.37500000  0.12500000  0.33333333       0.042
   0.50000000  0.12500000  0.33333333       0.021
   0.25000000  0.25000000  0.33333333       0.021
   0.37500000  0.25000000  0.33333333       0.042
   0.50000000  0.25000000  0.33333333       0.021
   0.37500000  0.37500000  0.33333333       0.021
   0.50000000  0.37500000  0.33333333       0.021
   0.50000000  0.50000000  0.33333333       0.005
   0.00000000  0.00000000  0.50000000       0.003
   0.12500000  0.00000000  0.50000000       0.010
   0.25000000  0.00000000  0.50000000       0.010
   0.37500000  0.00000000  0.50000000       0.010
   0.50000000  0.00000000  0.50000000       0.005
   0.12500000  0.12500000  0.50000000       0.010
   0.25000000  0.12500000  0.50000000       0.021
   0.37500000  0.12500000  0.50000000       0.021
   0.50000000  0.12500000  0.50000000       0.010
   0.25000000  0.25000000  0.50000000       0.010
   0.37500000  0.25000000  0.50000000       0.021
   0.50000000  0.25000000  0.50000000       0.010
   0.37500000  0.37500000  0.50000000       0.010
   0.50000000  0.37500000  0.50000000       0.010
   0.50000000  0.50000000  0.50000000       0.003
 
 position of ions in fractional coordinates (direct lattice) 
   0.00000000  0.50000017  0.49999928
   0.50000017  0.00000000  0.49999928
   0.50000017  0.00000000  0.00000000
   0.00000000  0.50000017  0.00000000
   0.50000017  0.50000017  0.49999928
   0.00000000  0.00000000  0.49999928
   0.50000017  0.50000017  0.00000000
   0.00000000  0.00000000  0.00000000
   0.25000009  0.75000026  0.74999960
   0.75000026  0.25000009  0.74999960
   0.75000026  0.75000026  0.25000032
   0.25000009  0.25000009  0.25000032
   0.25000009  0.75000026  0.25000032
   0.75000026  0.25000009  0.25000032
   0.75000026  0.75000026  0.74999960
   0.25000009  0.25000009  0.74999960
 
 position of ions in cartesian coordinates  (Angst):
   0.00000000  2.85395999  3.70447019
   2.85395999  0.00000000  3.70447019
   2.85395999  0.00000000  0.00000000
   0.00000000  2.85395999  0.00000000
   2.85395999  2.85395999  3.70447019
   0.00000000  0.00000000  3.70447019
   2.85395999  2.85395999  0.00000000
   0.00000000  0.00000000  0.00000000
   1.42698000  4.28093999  5.55671029
   4.28093999  1.42698000  5.55671029
   4.28093999  4.28093999  1.85224010
   1.42698000  1.42698000  1.85224010
   1.42698000  4.28093999  1.85224010
   4.28093999  1.42698000  1.85224010
   4.28093999  4.28093999  5.55671029
   1.42698000  1.42698000  5.55671029
 


--------------------------------------------------------------------------------------------------------


 k-point  1 :   0.0000 0.0000 0.0000  plane waves:    6527
 k-point  2 :   0.1250 0.0000 0.0000  plane waves:    6527
 k-point  3 :   0.2500 0.0000 0.0000  plane waves:    6511
 k-point  4 :   0.3750 0.0000 0.0000  plane waves:    6503
 k-point  5 :   0.5000 0.0000 0.0000  plane waves:    6510
 k-point  6 :   0.1250 0.1250 0.0000  plane waves:    6515
 k-point  7 :   0.2500 0.1250 0.0000  plane waves:    6505
 k-point  8 :   0.3750 0.1250 0.0000  plane waves:    6499
 k-point  9 :   0.5000 0.1250 0.0000  plane waves:    6514
 k-point 10 :   0.2500 0.2500 0.0000  plane waves:    6501
 k-point 11 :   0.3750 0.2500 0.0000  plane waves:    6492
 k-point 12 :   0.5000 0.2500 0.0000  plane waves:    6494
 k-point 13 :   0.3750 0.3750 0.0000  plane waves:    6469
 k-point 14 :   0.5000 0.3750 0.0000  plane waves:    6464
 k-point 15 :   0.5000 0.5000 0.0000  plane waves:    6456
 k-point 16 :   0.0000 0.0000 0.1667  plane waves:    6499
 k-point 17 :   0.1250 0.0000 0.1667  plane waves:    6523
 k-point 18 :   0.2500 0.0000 0.1667  plane waves:    6506
 k-point 19 :   0.3750 0.0000 0.1667  plane waves:    6496
 k-point 20 :   0.5000 0.0000 0.1667  plane waves:    6506
 k-point 21 :   0.1250 0.1250 0.1667  plane waves:    6497
 k-point 22 :   0.2500 0.1250 0.1667  plane waves:    6503
 k-point 23 :   0.3750 0.1250 0.1667  plane waves:    6499
 k-point 24 :   0.5000 0.1250 0.1667  plane waves:    6500
 k-point 25 :   0.2500 0.2500 0.1667  plane waves:    6484
 k-point 26 :   0.3750 0.2500 0.1667  plane waves:    6492
 k-point 27 :   0.5000 0.2500 0.1667  plane waves:    6494
 k-point 28 :   0.3750 0.3750 0.1667  plane waves:    6488
 k-point 29 :   0.5000 0.3750 0.1667  plane waves:    6462
 k-point 30 :   0.5000 0.5000 0.1667  plane waves:    6492
 k-point 31 :   0.0000 0.0000 0.3333  plane waves:    6480
 k-point 32 :   0.1250 0.0000 0.3333  plane waves:    6493
 k-point 33 :   0.2500 0.0000 0.3333  plane waves:    6499
 k-point 34 :   0.3750 0.0000 0.3333  plane waves:    6511
 k-point 35 :   0.5000 0.0000 0.3333  plane waves:    6514
 k-point 36 :   0.1250 0.1250 0.3333  plane waves:    6499
 k-point 37 :   0.2500 0.1250 0.3333  plane waves:    6504
 k-point 38 :   0.3750 0.1250 0.3333  plane waves:    6504
 k-point 39 :   0.5000 0.1250 0.3333  plane waves:    6508
 k-point 40 :   0.2500 0.2500 0.3333  plane waves:    6497
 k-point 41 :   0.3750 0.2500 0.3333  plane waves:    6499
 k-point 42 :   0.5000 0.2500 0.3333  plane waves:    6500
 k-point 43 :   0.3750 0.3750 0.3333  plane waves:    6497
 k-point 44 :   0.5000 0.3750 0.3333  plane waves:    6488
 k-point 45 :   0.5000 0.5000 0.3333  plane waves:    6468
 k-point 46 :   0.0000 0.0000 0.5000  plane waves:    6468
 k-point 47 :   0.1250 0.0000 0.5000  plane waves:    6490
 k-point 48 :   0.2500 0.0000 0.5000  plane waves:    6518
 k-point 49 :   0.3750 0.0000 0.5000  plane waves:    6500
 k-point 50 :   0.5000 0.0000 0.5000  plane waves:    6524
 k-point 51 :   0.1250 0.1250 0.5000  plane waves:    6486
 k-point 52 :   0.2500 0.1250 0.5000  plane waves:    6508
 k-point 53 :   0.3750 0.1250 0.5000  plane waves:    6520
 k-point 54 :   0.5000 0.1250 0.5000  plane waves:    6508
 k-point 55 :   0.2500 0.2500 0.5000  plane waves:    6504
 k-point 56 :   0.3750 0.2500 0.5000  plane waves:    6498
 k-point 57 :   0.5000 0.2500 0.5000  plane waves:    6472
 k-point 58 :   0.3750 0.3750 0.5000  plane waves:    6472
 k-point 59 :   0.5000 0.3750 0.5000  plane waves:    6500
 k-point 60 :   0.5000 0.5000 0.5000  plane waves:    6488

 maximum and minimum number of plane-waves per node :      1649     1602

 maximum number of plane-waves:      6527
 maximum index in each direction: 
   IXMAX=   10   IYMAX=   10   IZMAX=   13
   IXMIN=  -11   IYMIN=  -11   IZMIN=  -14

 WARNING: aliasing errors must be expected set NGX to  44 to avoid them
 WARNING: aliasing errors must be expected set NGY to  44 to avoid them
 WARNING: aliasing errors must be expected set NGZ to  56 to avoid them
 aliasing errors are usually negligible using standard VASP settings
 and one can safely disregard these warnings

 parallel 3D FFT for wavefunctions:
    minimum data exchange during FFTs selected (reduces bandwidth)
 parallel 3D FFT for charge:
    minimum data exchange during FFTs selected (reduces bandwidth)


 total amount of memory used by VASP on root node   268934. kBytes
========================================================================

   base      :      30000. kBytes
   nonl-proj :      42823. kBytes
   fftplans  :        728. kBytes
   grid      :       1777. kBytes
   one-center:        124. kBytes
   wavefun   :     193482. kBytes
 
 Broyden mixing: mesh for mixing (old mesh)
   NGX = 21   NGY = 21   NGZ = 27
  (NGX  = 40   NGY  = 40   NGZ  = 50)
  gives a total of  11907 points

 initial charge density was supplied:
 charge density of overlapping atoms calculated
 number of electron     148.0000000 magnetization      60.0000000
 keeping initial charge density in first step


--------------------------------------------------------------------------------------------------------


 Maximum index for augmentation-charges          310 (set IRDMAX)


--------------------------------------------------------------------------------------------------------


 First call to EWALD:  gamma=   0.285
 Maximum number of real-space cells 3x 3x 2
 Maximum number of reciprocal cells 3x 3x 3

 FEWALD executed in parallel
    FEWALD:  cpu time    0.00: real time    0.00


----------------------------------------- Iteration    1(   1)  ---------------------------------------


    POTLOK:  cpu time    0.05: real time    0.05
    SETDIJ:  cpu time    0.03: real time    0.03
     EDDAV:  cpu time  125.31: real time  125.62
 BZINTS: Fermi energy: 28.839982;148.000000 electrons
         Band energy:2160.971367;  BLOECHL correction: -0.133720
       DOS:  cpu time    0.66: real time    0.66
    --------------------------------------------
      LOOP:  cpu time  126.05: real time  126.36

 eigenvalue-minimisations  : 28928
 total energy-change (2. order) : 0.1845468E+04  (-0.5606479E+04)
 number of electron     148.0000000 magnetization      60.0000000
 augmentation part      148.0000000 magnetization      60.0000000

 Free energy of the ion-electron system (eV)
  ---------------------------------------------------
  alpha Z        PSCENC =       922.24171481
  Ewald energy   TEWEN  =    -12199.77309797
  -1/2 Hartree   DENC   =     -2554.05889308
  -exchange  EXHF       =         0.00000000
  -V(xc)+E(xc)   XCENC  =       -55.20547016
  PAW double counting   =     10150.01634036    -9766.87283966
  entropy T*S    EENTRO =         0.00000000
  eigenvalues    EBANDS =      2160.97136738
  atomic energy  EATOM  =     13188.14867366
  ---------------------------------------------------
  free energy    TOTEN  =      1845.46779536 eV

  energy without entropy =     1845.46779536  energy(sigma->0) =     1845.46779536


--------------------------------------------------------------------------------------------------------




----------------------------------------- Iteration    1(   2)  ---------------------------------------


     EDDAV:  cpu time  133.74: real time  133.90
 BZINTS: Fermi energy: 14.304793;148.000000 electrons
         Band energy: 594.943950;  BLOECHL correction: -0.059373
       DOS:  cpu time    0.68: real time    0.68
    --------------------------------------------
      LOOP:  cpu time  134.42: real time  134.59

 eigenvalue-minimisations  : 28320
 total energy-change (2. order) :-0.1566027E+04  (-0.1429972E+04)
 number of electron     148.0000000 magnetization      60.0000000
 augmentation part      148.0000000 magnetization      60.0000000

 Free energy of the ion-electron system (eV)
  ---------------------------------------------------
  alpha Z        PSCENC =       922.24171481
  Ewald energy   TEWEN  =    -12199.77309797
  -1/2 Hartree   DENC   =     -2554.05889308
  -exchange  EXHF       =         0.00000000
  -V(xc)+E(xc)   XCENC  =       -55.20547016
  PAW double counting   =     10150.01634036    -9766.87283966
  entropy T*S    EENTRO =         0.00000000
  eigenvalues    EBANDS =       594.94394972
  atomic energy  EATOM  =     13188.14867366
  ---------------------------------------------------
  free energy    TOTEN  =       279.44037769 eV

  energy without entropy =      279.44037769  energy(sigma->0) =      279.44037769


--------------------------------------------------------------------------------------------------------




----------------------------------------- Iteration    1(   3)  ---------------------------------------


     EDDAV:  cpu time  129.33: real time  129.48
 BZINTS: Fermi energy: 10.507223;148.000000 electrons
         Band energy: 253.048060;  BLOECHL correction: -0.063958
       DOS:  cpu time    0.71: real time    0.71
    --------------------------------------------
      LOOP:  cpu time  130.05: real time  130.20

 eigenvalue-minimisations  : 28320
 total energy-change (2. order) :-0.3418959E+03  (-0.2950201E+03)
 number of electron     148.0000000 magnetization      60.0000000
 augmentation part      148.0000000 magnetization      60.0000000

 Free energy of the ion-electron system (eV)
  ---------------------------------------------------
  alpha Z        PSCENC =       922.24171481
  Ewald energy   TEWEN  =    -12199.77309797
  -1/2 Hartree   DENC   =     -2554.05889308
  -exchange  EXHF       =         0.00000000
  -V(xc)+E(xc)   XCENC  =       -55.20547016
  PAW double counting   =     10150.01634036    -9766.87283966
  entropy T*S    EENTRO =         0.00000000
  eigenvalues    EBANDS =       253.04806002
  atomic energy  EATOM  =     13188.14867366
  ---------------------------------------------------
  free energy    TOTEN  =       -62.45551201 eV

  energy without entropy =      -62.45551201  energy(sigma->0) =      -62.45551201


--------------------------------------------------------------------------------------------------------




----------------------------------------- Iteration    1(   4)  ---------------------------------------


     EDDAV:  cpu time  139.43: real time  139.63
 BZINTS: Fermi energy: 10.245362;148.000000 electrons
         Band energy: 222.596825;  BLOECHL correction: -0.077267
       DOS:  cpu time    0.71: real time    0.72
    --------------------------------------------
      LOOP:  cpu time  140.15: real time  140.35

 eigenvalue-minimisations  : 32454
 total energy-change (2. order) :-0.3045124E+02  (-0.2944236E+02)
 number of electron     148.0000000 magnetization      60.0000000
 augmentation part      148.0000000 magnetization      60.0000000

 Free energy of the ion-electron system (eV)
  ---------------------------------------------------
  alpha Z        PSCENC =       922.24171481
  Ewald energy   TEWEN  =    -12199.77309797
  -1/2 Hartree   DENC   =     -2554.05889308
  -exchange  EXHF       =         0.00000000
  -V(xc)+E(xc)   XCENC  =       -55.20547016
  PAW double counting   =     10150.01634036    -9766.87283966
  entropy T*S    EENTRO =         0.00000000
  eigenvalues    EBANDS =       222.59682501
  atomic energy  EATOM  =     13188.14867366
  ---------------------------------------------------
  free energy    TOTEN  =       -92.90674702 eV

  energy without entropy =      -92.90674702  energy(sigma->0) =      -92.90674702


--------------------------------------------------------------------------------------------------------




----------------------------------------- Iteration    1(   5)  ---------------------------------------


     EDDAV:  cpu time  152.73: real time  152.99
 BZINTS: Fermi energy: 10.234999;148.000000 electrons
         Band energy: 221.512232;  BLOECHL correction: -0.077269
       DOS:  cpu time    0.69: real time    0.69
    CHARGE:  cpu time    2.17: real time    2.17
    MIXING:  cpu time    0.00: real time    0.00
    --------------------------------------------
      LOOP:  cpu time  155.59: real time  155.86

 eigenvalue-minimisations  : 35984
 total energy-change (2. order) :-0.1084593E+01  (-0.1081866E+01)
 number of electron     147.9998946 magnetization      28.1000098
 augmentation part       62.5556562 magnetization      22.1468992

 Broyden mixing:
  rms(total) = 0.55389E+01    rms(broyden)= 0.55389E+01
  rms(prec ) = 0.61932E+01
  weight for this iteration     100.00

 Free energy of the ion-electron system (eV)
  ---------------------------------------------------
  alpha Z        PSCENC =       922.24171481
  Ewald energy   TEWEN  =    -12199.77309797
  -1/2 Hartree   DENC   =     -2554.05889308
  -exchange  EXHF       =         0.00000000
  -V(xc)+E(xc)   XCENC  =       -55.20547016
  PAW double counting   =     10150.01634036    -9766.87283966
  entropy T*S    EENTRO =         0.00000000
  eigenvalues    EBANDS =       221.51223169
  atomic energy  EATOM  =     13188.14867366
  ---------------------------------------------------
  free energy    TOTEN  =       -93.99134034 eV

  energy without entropy =      -93.99134034  energy(sigma->0) =      -93.99134034


--------------------------------------------------------------------------------------------------------




----------------------------------------- Iteration    1(   6)  ---------------------------------------


    POTLOK:  cpu time    0.51: real time    0.51
    SETDIJ:  cpu time    0.04: real time    0.04
    EDDIAG:  cpu time   13.45: real time   13.47
  RMM-DIIS:  cpu time   95.83: real time   95.94
    ORTHCH:  cpu time    3.81: real time    3.81
 BZINTS: Fermi energy:  8.696394;148.000000 electrons
         Band energy: 184.400757;  BLOECHL correction: -0.166368
       DOS:  cpu time    0.75: real time    0.75
    CHARGE:  cpu time    2.18: real time    2.18
    MIXING:  cpu time    0.00: real time    0.00
    --------------------------------------------
      LOOP:  cpu time  116.57: real time  116.71

 eigenvalue-minimisations  : 33310
 total energy-change (2. order) :-0.3189870E+02  (-0.7622156E+01)
 number of electron     147.9998767 magnetization      23.8672316
 augmentation part       68.5006035 magnetization      16.8098587

 Broyden mixing:
  rms(total) = 0.47913E+01    rms(broyden)= 0.47913E+01
  rms(prec ) = 0.87921E+01
  weight for this iteration     100.00

 eigenvalues of (default mixing * dielectric matrix)
  average eigenvalue GAMMA=   0.6999
  0.6999

 Free energy of the ion-electron system (eV)
  ---------------------------------------------------
  alpha Z        PSCENC =       922.24171481
  Ewald energy   TEWEN  =    -12199.77309797
  -1/2 Hartree   DENC   =     -2517.83923989
  -exchange  EXHF       =         0.00000000
  -V(xc)+E(xc)   XCENC  =       -78.75449868
  PAW double counting   =     10543.21546784   -10167.52981600
  entropy T*S    EENTRO =         0.00000000
  eigenvalues    EBANDS =       184.40075684
  atomic energy  EATOM  =     13188.14867366
  ---------------------------------------------------
  free energy    TOTEN  =      -125.89003938 eV

  energy without entropy =     -125.89003938  energy(sigma->0) =     -125.89003938


--------------------------------------------------------------------------------------------------------




----------------------------------------- Iteration    1(   7)  ---------------------------------------


    POTLOK:  cpu time    0.04: real time    0.04
    SETDIJ:  cpu time    0.03: real time    0.03
    EDDIAG:  cpu time   13.32: real time   13.34
  RMM-DIIS:  cpu time   98.97: real time   99.17
    ORTHCH:  cpu time    3.72: real time    3.72
 BZINTS: Fermi energy:  9.988978;148.000000 electrons
         Band energy: 126.018963;  BLOECHL correction: -0.024879
       DOS:  cpu time    0.66: real time    0.66
    CHARGE:  cpu time    2.10: real time    2.10
    MIXING:  cpu time    0.00: real time    0.00
    --------------------------------------------
      LOOP:  cpu time  118.84: real time  119.06

 eigenvalue-minimisations  : 33612
 total energy-change (2. order) :-0.2000200E+01  (-0.2730397E+01)
 number of electron     147.9999148 magnetization      12.4011110
 augmentation part       65.0937045 magnetization       8.7872032

 Broyden mixing:
  rms(total) = 0.32184E+01    rms(broyden)= 0.32184E+01
  rms(prec ) = 0.57881E+01
  weight for this iteration     100.00

 eigenvalues of (default mixing * dielectric matrix)
  average eigenvalue GAMMA=   0.6131
  0.9882  0.2380

 Free energy of the ion-electron system (eV)
  ---------------------------------------------------
  alpha Z        PSCENC =       922.24171481
  Ewald energy   TEWEN  =    -12199.77309797
  -1/2 Hartree   DENC   =     -2446.40329961
  -exchange  EXHF       =         0.00000000
  -V(xc)+E(xc)   XCENC  =       -84.93158426
  PAW double counting   =     10479.67318180   -10112.86479130
  entropy T*S    EENTRO =         0.00000000
  eigenvalues    EBANDS =       126.01896301
  atomic energy  EATOM  =     13188.14867366
  ---------------------------------------------------
  free energy    TOTEN  =      -127.89023985 eV

  energy without entropy =     -127.89023985  energy(sigma->0) =     -127.89023985


--------------------------------------------------------------------------------------------------------




----------------------------------------- Iteration    1(   8)  ---------------------------------------


    POTLOK:  cpu time    0.04: real time    0.04
    SETDIJ:  cpu time    0.03: real time    0.03
    EDDIAG:  cpu time   13.37: real time   13.39
  RMM-DIIS:  cpu time  109.70: real time  109.82
    ORTHCH:  cpu time    3.69: real time    3.70
 BZINTS: Fermi energy:  9.697877;148.000000 electrons
         Band energy: 148.980603;  BLOECHL correction: -0.026970
       DOS:  cpu time    0.66: real time    0.66
    CHARGE:  cpu time    2.12: real time    2.13
    MIXING:  cpu time    0.00: real time    0.00
    --------------------------------------------
      LOOP:  cpu time  129.62: real time  129.78

 eigenvalue-minimisations  : 37532
 total energy-change (2. order) : 0.1043075E+02  (-0.8177188E+00)
 number of electron     147.9999002 magnetization       5.1983446
 augmentation part       64.9127695 magnetization       2.8998676

 Broyden mixing:
  rms(total) = 0.13532E+01    rms(broyden)= 0.13532E+01
  rms(prec ) = 0.23012E+01
  weight for this iteration     100.00

 eigenvalues of (default mixing * dielectric matrix)
  average eigenvalue GAMMA=   0.8331
  0.2468  0.8349  1.4177

 Free energy of the ion-electron system (eV)
  ---------------------------------------------------
  alpha Z        PSCENC =       922.24171481
  Ewald energy   TEWEN  =    -12199.77309797
  -1/2 Hartree   DENC   =     -2453.17876044
  -exchange  EXHF       =         0.00000000
  -V(xc)+E(xc)   XCENC  =       -87.59338939
  PAW double counting   =     10705.35735571   -10341.64259381
  entropy T*S    EENTRO =         0.00000000
  eigenvalues    EBANDS =       148.98060319
  atomic energy  EATOM  =     13188.14867366
  ---------------------------------------------------
  free energy    TOTEN  =      -117.45949423 eV

  energy without entropy =     -117.45949423  energy(sigma->0) =     -117.45949423


--------------------------------------------------------------------------------------------------------




----------------------------------------- Iteration    1(   9)  ---------------------------------------


    POTLOK:  cpu time    0.04: real time    0.04
    SETDIJ:  cpu time    0.03: real time    0.03
    EDDIAG:  cpu time   13.31: real time   13.33
  RMM-DIIS:  cpu time  100.41: real time  100.61
    ORTHCH:  cpu time    3.66: real time    3.66
 BZINTS: Fermi energy:  9.042013;148.000000 electrons
         Band energy: 135.019918;  BLOECHL correction: -0.039850
       DOS:  cpu time    0.68: real time    0.68
    CHARGE:  cpu time    2.10: real time    2.10
    MIXING:  cpu time    0.00: real time    0.00
    --------------------------------------------
      LOOP:  cpu time  120.23: real time  120.45

 eigenvalue-minimisations  : 35462
 total energy-change (2. order) : 0.9660129E+00  (-0.4050949E+00)
 number of electron     147.9998878 magnetization       4.3833702
 augmentation part       65.9856973 magnetization       2.7694709

 Broyden mixing:
  rms(total) = 0.35916E+00    rms(broyden)= 0.35914E+00
  rms(prec ) = 0.50355E+00
  weight for this iteration     100.00

 eigenvalues of (default mixing * dielectric matrix)
  average eigenvalue GAMMA=   0.8614
  1.5404  0.2494  0.9809  0.6748

 Free energy of the ion-electron system (eV)
  ---------------------------------------------------
  alpha Z        PSCENC =       922.24171481
  Ewald energy   TEWEN  =    -12199.77309797
  -1/2 Hartree   DENC   =     -2435.95852225
  -exchange  EXHF       =         0.00000000
  -V(xc)+E(xc)   XCENC  =       -88.15859892
  PAW double counting   =     10839.19641413   -10477.20998313
  entropy T*S    EENTRO =         0.00000000
  eigenvalues    EBANDS =       135.01991832
  atomic energy  EATOM  =     13188.14867366
  ---------------------------------------------------
  free energy    TOTEN  =      -116.49348134 eV

  energy without entropy =     -116.49348134  energy(sigma->0) =     -116.49348134


--------------------------------------------------------------------------------------------------------




----------------------------------------- Iteration    1(  10)  ---------------------------------------


    POTLOK:  cpu time    0.36: real time    0.46
    SETDIJ:  cpu time    0.03: real time    0.03
    EDDIAG:  cpu time   13.24: real time   13.26
  RMM-DIIS:  cpu time  122.53: real time  122.81
    ORTHCH:  cpu time    3.76: real time    3.76
 BZINTS: Fermi energy:  9.001456;148.000000 electrons
         Band energy: 125.513461;  BLOECHL correction: -0.042043
       DOS:  cpu time    0.71: real time    0.71
    CHARGE:  cpu time    2.12: real time    2.13
    MIXING:  cpu time    0.00: real time    0.00
    --------------------------------------------
      LOOP:  cpu time  142.75: real time  143.18

 eigenvalue-minimisations  : 42175
 total energy-change (2. order) :-0.1064411E-01  (-0.4336217E-01)
 number of electron     147.9998851 magnetization       4.6407721
 augmentation part       66.0263031 magnetization       3.1159747

 Broyden mixing:
  rms(total) = 0.12290E+00    rms(broyden)= 0.12289E+00
  rms(prec ) = 0.17772E+00
  weight for this iteration     100.00

 eigenvalues of (default mixing * dielectric matrix)
  average eigenvalue GAMMA=   0.9789
  0.2487  1.5067  1.5067  0.6676  0.9648

 Free energy of the ion-electron system (eV)
  ---------------------------------------------------
  alpha Z        PSCENC =       922.24171481
  Ewald energy   TEWEN  =    -12199.77309797
  -1/2 Hartree   DENC   =     -2425.85614638
  -exchange  EXHF       =         0.00000000
  -V(xc)+E(xc)   XCENC  =       -87.99266564
  PAW double counting   =     10885.18516556   -10523.97123082
  entropy T*S    EENTRO =         0.00000000
  eigenvalues    EBANDS =       125.51346133
  atomic energy  EATOM  =     13188.14867366
  ---------------------------------------------------
  free energy    TOTEN  =      -116.50412545 eV

  energy without entropy =     -116.50412545  energy(sigma->0) =     -116.50412545


--------------------------------------------------------------------------------------------------------




----------------------------------------- Iteration    1(  11)  ---------------------------------------


    POTLOK:  cpu time    0.23: real time    0.29
    SETDIJ:  cpu time    0.03: real time    0.03
    EDDIAG:  cpu time   13.47: real time   13.57
  RMM-DIIS:  cpu time  112.20: real time  112.44
    ORTHCH:  cpu time    3.68: real time    3.68
 BZINTS: Fermi energy:  9.033748;148.000000 electrons
         Band energy: 123.562255;  BLOECHL correction: -0.045127
       DOS:  cpu time    0.70: real time    0.71
    CHARGE:  cpu time    2.12: real time    2.13
    MIXING:  cpu time    0.00: real time    0.00
    --------------------------------------------
      LOOP:  cpu time  132.44: real time  132.88

 eigenvalue-minimisations  : 38539
 total energy-change (2. order) :-0.5349044E-02  (-0.7159410E-02)
 number of electron     147.9998857 magnetization       4.7318170
 augmentation part       65.9337356 magnetization       3.2089844

 Broyden mixing:
  rms(total) = 0.86961E-01    rms(broyden)= 0.86960E-01
  rms(prec ) = 0.14246E+00
  weight for this iteration     100.00

 eigenvalues of (default mixing * dielectric matrix)
  average eigenvalue GAMMA=   0.9736
  1.6453  1.6453  0.2486  0.8198  0.8198  0.6626

 Free energy of the ion-electron system (eV)
  ---------------------------------------------------
  alpha Z        PSCENC =       922.24171481
  Ewald energy   TEWEN  =    -12199.77309797
  -1/2 Hartree   DENC   =     -2423.17568574
  -exchange  EXHF       =         0.00000000
  -V(xc)+E(xc)   XCENC  =       -87.89638525
  PAW double counting   =     10914.93585756   -10554.55280686
  entropy T*S    EENTRO =         0.00000000
  eigenvalues    EBANDS =       123.56225530
  atomic energy  EATOM  =     13188.14867366
  ---------------------------------------------------
  free energy    TOTEN  =      -116.50947449 eV

  energy without entropy =     -116.50947449  energy(sigma->0) =     -116.50947449


--------------------------------------------------------------------------------------------------------




----------------------------------------- Iteration    1(  12)  ---------------------------------------


    POTLOK:  cpu time    0.41: real time    0.66
    SETDIJ:  cpu time    0.03: real time    0.03
    EDDIAG:  cpu time   13.36: real time   13.38
  RMM-DIIS:  cpu time  121.47: real time  121.61
    ORTHCH:  cpu time    3.68: real time    3.69
 BZINTS: Fermi energy:  9.012808;148.000000 electrons
         Band energy: 122.983016;  BLOECHL correction: -0.046395
       DOS:  cpu time    0.68: real time    0.68
    CHARGE:  cpu time    2.10: real time    2.11
    MIXING:  cpu time    0.00: real time    0.00
    --------------------------------------------
      LOOP:  cpu time  141.74: real time  142.16

 eigenvalue-minimisations  : 42835
 total energy-change (2. order) : 0.7258636E-02  (-0.9160263E-03)
 number of electron     147.9998856 magnetization       4.6783477
 augmentation part       65.9756159 magnetization       3.1580184

 Broyden mixing:
  rms(total) = 0.33121E-01    rms(broyden)= 0.33121E-01
  rms(prec ) = 0.47893E-01
  weight for this iteration     100.00

 eigenvalues of (default mixing * dielectric matrix)
  average eigenvalue GAMMA=   1.0356
  1.7042  1.7042  0.2486  1.3044  0.8261  0.8261  0.6360

 Free energy of the ion-electron system (eV)
  ---------------------------------------------------
  alpha Z        PSCENC =       922.24171481
  Ewald energy   TEWEN  =    -12199.77309797
  -1/2 Hartree   DENC   =     -2421.99485196
  -exchange  EXHF       =         0.00000000
  -V(xc)+E(xc)   XCENC  =       -87.80516101
  PAW double counting   =     10936.88151363   -10577.18402312
  entropy T*S    EENTRO =         0.00000000
  eigenvalues    EBANDS =       122.98301610
  atomic energy  EATOM  =     13188.14867366
  ---------------------------------------------------
  free energy    TOTEN  =      -116.50221585 eV

  energy without entropy =     -116.50221585  energy(sigma->0) =     -116.50221585


--------------------------------------------------------------------------------------------------------




----------------------------------------- Iteration    1(  13)  ---------------------------------------


    POTLOK:  cpu time    0.06: real time    0.08
    SETDIJ:  cpu time    0.03: real time    0.03
    EDDIAG:  cpu time   13.97: real time   14.16
  RMM-DIIS:  cpu time  119.19: real time  119.70
    ORTHCH:  cpu time    3.81: real time    3.81
 BZINTS: Fermi energy:  9.006382;148.000000 electrons
         Band energy: 122.902399;  BLOECHL correction: -0.047232
       DOS:  cpu time    0.71: real time    0.71
    CHARGE:  cpu time    2.13: real time    2.13
    MIXING:  cpu time    0.00: real time    0.00
    --------------------------------------------
      LOOP:  cpu time  139.92: real time  140.66

 eigenvalue-minimisations  : 41957
 total energy-change (2. order) : 0.2142877E-03  (-0.1894858E-03)
 number of electron     147.9998854 magnetization       4.7050909
 augmentation part       65.9815196 magnetization       3.1780890

 Broyden mixing:
  rms(total) = 0.89763E-02    rms(broyden)= 0.89760E-02
  rms(prec ) = 0.10347E-01
  weight for this iteration     100.00

 eigenvalues of (default mixing * dielectric matrix)
  average eigenvalue GAMMA=   1.0513
  2.1280  1.6275  0.2486  1.3117  0.8180  0.8180  0.8308  0.6278

 Free energy of the ion-electron system (eV)
  ---------------------------------------------------
  alpha Z        PSCENC =       922.24171481
  Ewald energy   TEWEN  =    -12199.77309797
  -1/2 Hartree   DENC   =     -2421.39881631
  -exchange  EXHF       =         0.00000000
  -V(xc)+E(xc)   XCENC  =       -87.80603165
  PAW double counting   =     10952.62911706   -10593.44596058
  entropy T*S    EENTRO =         0.00000000
  eigenvalues    EBANDS =       122.90239941
  atomic energy  EATOM  =     13188.14867366
  ---------------------------------------------------
  free energy    TOTEN  =      -116.50200157 eV

  energy without entropy =     -116.50200157  energy(sigma->0) =     -116.50200157


--------------------------------------------------------------------------------------------------------




----------------------------------------- Iteration    1(  14)  ---------------------------------------


    POTLOK:  cpu time    0.58: real time    0.58
    SETDIJ:  cpu time    0.03: real time    0.03
    EDDIAG:  cpu time   13.32: real time   13.33
  RMM-DIIS:  cpu time   91.23: real time   91.35
    ORTHCH:  cpu time    3.70: real time    3.70
 BZINTS: Fermi energy:  9.004331;148.000000 electrons
         Band energy: 122.877882;  BLOECHL correction: -0.047377
       DOS:  cpu time    0.69: real time    0.69
    CHARGE:  cpu time    2.13: real time    2.13
    MIXING:  cpu time    0.00: real time    0.00
    --------------------------------------------
      LOOP:  cpu time  111.69: real time  111.84

 eigenvalue-minimisations  : 30687
 total energy-change (2. order) :-0.2360435E-03  (-0.2859905E-04)
 number of electron     147.9998853 magnetization       4.7030022
 augmentation part       65.9827148 magnetization       3.1700163

 Broyden mixing:
  rms(total) = 0.40638E-02    rms(broyden)= 0.40637E-02
  rms(prec ) = 0.48459E-02
  weight for this iteration     100.00

 eigenvalues of (default mixing * dielectric matrix)
  average eigenvalue GAMMA=   1.1070
  2.4700  1.5743  1.5743  0.2486  0.9118  0.9118  0.9179  0.7272  0.6266

 Free energy of the ion-electron system (eV)
  ---------------------------------------------------
  alpha Z        PSCENC =       922.24171481
  Ewald energy   TEWEN  =    -12199.77309797
  -1/2 Hartree   DENC   =     -2421.18800858
  -exchange  EXHF       =         0.00000000
  -V(xc)+E(xc)   XCENC  =       -87.79766637
  PAW double counting   =     10957.43376112   -10598.44549652
  entropy T*S    EENTRO =         0.00000000
  eigenvalues    EBANDS =       122.87788223
  atomic energy  EATOM  =     13188.14867366
  ---------------------------------------------------
  free energy    TOTEN  =      -116.50223761 eV

  energy without entropy =     -116.50223761  energy(sigma->0) =     -116.50223761


--------------------------------------------------------------------------------------------------------




----------------------------------------- Iteration    1(  15)  ---------------------------------------


    POTLOK:  cpu time    0.08: real time    0.09
    SETDIJ:  cpu time    0.03: real time    0.03
    EDDIAG:  cpu time   13.58: real time   13.60
  RMM-DIIS:  cpu time   58.87: real time   58.94
    ORTHCH:  cpu time    3.77: real time    3.78
 BZINTS: Fermi energy:  9.002868;148.000000 electrons
         Band energy: 122.869503;  BLOECHL correction: -0.047549
       DOS:  cpu time    0.64: real time    0.64
    CHARGE:  cpu time    2.13: real time    2.13
    MIXING:  cpu time    0.00: real time    0.01
    --------------------------------------------
      LOOP:  cpu time   79.11: real time   79.23

 eigenvalue-minimisations  : 19888
 total energy-change (2. order) :-0.2350583E-03  (-0.7579014E-05)
 number of electron     147.9998852 magnetization       4.7112185
 augmentation part       65.9849897 magnetization       3.1769265

 Broyden mixing:
  rms(total) = 0.37555E-02    rms(broyden)= 0.37555E-02
  rms(prec ) = 0.48643E-02
  weight for this iteration     100.00

 eigenvalues of (default mixing * dielectric matrix)
  average eigenvalue GAMMA=   1.0899
  2.6266  1.5546  1.5546  0.2486  1.0621  0.9205  0.9205  0.7316  0.6727  0.6068

 Free energy of the ion-electron system (eV)
  ---------------------------------------------------
  alpha Z        PSCENC =       922.24171481
  Ewald energy   TEWEN  =    -12199.77309797
  -1/2 Hartree   DENC   =     -2421.06157136
  -exchange  EXHF       =         0.00000000
  -V(xc)+E(xc)   XCENC  =       -87.80364943
  PAW double counting   =     10960.33323711   -10601.45728297
  entropy T*S    EENTRO =         0.00000000
  eigenvalues    EBANDS =       122.86950347
  atomic energy  EATOM  =     13188.14867366
  ---------------------------------------------------
  free energy    TOTEN  =      -116.50247267 eV

  energy without entropy =     -116.50247267  energy(sigma->0) =     -116.50247267


--------------------------------------------------------------------------------------------------------




----------------------------------------- Iteration    1(  16)  ---------------------------------------


    POTLOK:  cpu time    0.52: real time    0.52
    SETDIJ:  cpu time    0.04: real time    0.04
    EDDIAG:  cpu time   14.42: real time   14.44
WARNING in EDDRMM: call to ZHEGV failed, returncode =   8  4 53
  RMM-DIIS:  cpu time   54.81: real time   54.90
    ORTHCH:  cpu time    3.78: real time    3.78
 BZINTS: Fermi energy:  9.003173;148.000000 electrons
         Band energy: 122.864900;  BLOECHL correction: -0.047535
       DOS:  cpu time    0.70: real time    0.70
    --------------------------------------------
      LOOP:  cpu time   74.27: real time   74.38

 eigenvalue-minimisations  : 18301
 total energy-change (2. order) : 0.4036763E-04  (-0.3194812E-05)
 number of electron     147.9998852 magnetization       4.7112185
 augmentation part       65.9849897 magnetization       3.1769265

 Free energy of the ion-electron system (eV)
  ---------------------------------------------------
  alpha Z        PSCENC =       922.24171481
  Ewald energy   TEWEN  =    -12199.77309797
  -1/2 Hartree   DENC   =     -2421.05368355
  -exchange  EXHF       =         0.00000000
  -V(xc)+E(xc)   XCENC  =       -87.80097661
  PAW double counting   =     10960.43112795   -10601.56109020
  entropy T*S    EENTRO =         0.00000000
  eigenvalues    EBANDS =       122.86489960
  atomic energy  EATOM  =     13188.14867366
  ---------------------------------------------------
  free energy    TOTEN  =      -116.50243230 eV

  energy without entropy =     -116.50243230  energy(sigma->0) =     -116.50243230


--------------------------------------------------------------------------------------------------------




 average (electrostatic) potential at core
  the test charge radii are     1.1806  1.0894  1.2064
  (the norm of the test charge is              1.0000)
       1 -46.0700       2 -46.0700       3 -46.0698       4 -46.0698       5 -46.0702
       6 -46.0703       7 -46.0696       8 -46.0696       9 -98.0635      10 -98.0635
      11 -98.0639      12 -98.0638      13 -37.2943      14 -37.2943      15 -37.2939
      16 -37.2938
 
 
 
 E-fermi :   9.0032     XC(G=0): -12.8427     alpha+bet :-16.0380


 spin component 1

 k-point   1 :       0.0000    0.0000    0.0000
  band No.  band energies     occupation 
      1     -12.4154      1.00000
      2     -12.4150      1.00000
      3     -12.4122      1.00000
      4     -12.4105      1.00000
      5     -12.4105      1.00000
      6     -12.4041      1.00000
      7     -12.4011      1.00000
      8     -12.4011      1.00000
      9     -12.3990      1.00000
     10     -12.3944      1.00000
     11     -12.3923      1.00000
     12     -12.3923      1.00000
     13     -12.3908      1.00000
     14     -12.3908      1.00000
     15     -12.3798      1.00000
     16     -12.3794      1.00000
     17     -12.3553      1.00000
     18     -12.3549      1.00000
     19     -12.3547      1.00000
     20     -12.3542      1.00000
     21      -1.5541      1.00000
     22       0.0097      1.00000
     23       0.5730      1.00000
     24       0.5733      1.00000
     25       2.5998      1.00000
     26       3.2617      1.00000
     27       3.2617      1.00000
     28       3.8678      1.00000
     29       4.2618      1.00000
     30       4.3024      1.00000
     31       4.4104      1.00000
     32       4.4104      1.00000
     33       4.5708      1.00000
     34       4.6983      1.00000
     35       4.6983      1.00000
     36       4.8243      1.00000
     37       4.8244      1.00000
     38       4.8386      1.00000
     39       5.1799      1.00000
     40       5.2467      1.00000
     41       5.2467      1.00000
     42       5.3447      1.00000
     43       5.3449      1.00000
     44       5.3879      1.00000
     45       5.3879      1.00000
     46       6.1006      1.00000
     47       6.1006      1.00000
     48       6.5958      1.00000
     49       6.5958      1.00000
     50       6.8574      1.00000
     51       6.8574      1.00000
     52       6.8750      1.00000
     53       6.8750      1.00000
     54       6.9765      1.00000
     55       6.9766      1.00000
     56       7.0864      1.00000
     57       7.1602      1.00000
     58       7.1602      1.00000
     59       7.2269      1.00000
     60       7.2269      1.00000
     61       7.4254      1.00000
     62       7.7134      1.00000
     63       7.7134      1.00000
     64       7.7643      1.00000
     65       7.7644      1.00000
     66       7.8750      1.00000
     67       8.2917      1.00000
     68       8.3869      1.00000
     69       8.4598      1.00000
     70       8.4601      1.00000
     71       8.5875      1.00000
     72       8.5888      1.00000
     73       8.5888      1.00000
     74       8.8342      1.00000
     75       8.9013      1.00000
     76       8.9013      1.00000
     77       9.0579      0.00441
     78       9.0579      0.00435
     79       9.1886      0.00000
     80       9.3224      0.00000
     81       9.3696      0.00000
     82       9.3770      0.00000
     83       9.4973      0.00000
     84       9.4976      0.00000
     85       9.5328      0.00000
     86       9.5328      0.00000
     87       9.7892      0.00000
     88       9.7895      0.00000
     89       9.8980      0.00000
     90      10.1087      0.00000
     91      10.1087      0.00000
     92      10.2216      0.00000
     93      10.3768      0.00000
     94      10.3768      0.00000
     95      12.6062      0.00000
     96      12.8282      0.00000
     97      12.8282      0.00000
     98      13.6477      0.00000
     99      13.6477      0.00000
    100      14.4390      0.00000
    101      14.4390      0.00000
    102      15.0887      0.00000
    103      15.5466      0.00000
    104      15.5466      0.00000
    105      16.1922      0.00000
    106      16.4810      0.00000
    107      17.8988      0.00000
    108      18.1321      0.00000
    109      18.2372      0.00000
    110      18.5718      0.00000
[...]
    106      15.9516      0.00000
    107      15.9518      0.00000
    108      15.9518      0.00000
    109      18.3116      0.00000
    110      18.3116      0.00000
    111      18.3118      0.00000
    112      18.3118      0.00000
    113      20.1598      0.00000
    114      20.1607      0.00000
    115      20.3455      0.00000
    116      20.5922      0.00000
    117      20.7395      0.00000
    118      20.9299      0.00000


--------------------------------------------------------------------------------------------------------


 soft charge-density along one line, spin component           1
         0         1         2         3         4         5         6         7         8         9
 total charge-density along one line
 
 soft charge-density along one line, spin component           2
         0         1         2         3         4         5         6         7         8         9
 total charge-density along one line
 
 pseudopotential strength for first ion, spin component:           1
 -5.261   0.000   0.000   0.000   0.000  -0.609   0.000   0.000
  0.000  -5.298   0.000   0.000   0.000   0.000  -0.604   0.000
  0.000   0.000  -5.285   0.000   0.000   0.000   0.000  -0.606
  0.000   0.000   0.000  -5.298   0.000   0.000   0.000   0.000
  0.000   0.000   0.000   0.000  -5.338   0.000   0.000   0.000
 -0.609   0.000   0.000   0.000   0.000   0.456   0.000   0.000
  0.000  -0.604   0.000   0.000   0.000   0.000   0.455   0.000
  0.000   0.000  -0.606   0.000   0.000   0.000   0.000   0.455
  0.000   0.000   0.000  -0.604   0.000   0.000   0.000   0.000
  0.000   0.000   0.000   0.000  -0.596   0.000   0.000   0.000
  0.000   0.000  -0.005   0.000   0.000   0.000   0.000   0.001
  0.000   0.000   0.000   0.000   0.000   0.000   0.000   0.000
  0.000   0.000   0.000   0.001   0.000   0.000   0.000   0.000
  0.001   0.000   0.000   0.000   0.000   0.001   0.000   0.000
  0.000   0.001   0.000   0.000   0.000   0.000   0.001   0.000
  0.000   0.000   0.000   0.000   0.000   0.000   0.000   0.000
  0.000   0.000   0.000   0.000   0.000   0.000   0.000   0.000
  0.000   0.000   0.000   0.000   0.000   0.000   0.000   0.000
 pseudopotential strength for first ion, spin component:           2
 -5.268   0.000   0.000   0.000   0.000  -0.608   0.000   0.000
  0.000  -5.298   0.000   0.000   0.000   0.000  -0.604   0.000
  0.000   0.000  -5.280   0.000   0.000   0.000   0.000  -0.606
  0.000   0.000   0.000  -5.298   0.000   0.000   0.000   0.000
  0.000   0.000   0.000   0.000  -5.303   0.000   0.000   0.000
 -0.608   0.000   0.000   0.000   0.000   0.456   0.000   0.000
  0.000  -0.604   0.000   0.000   0.000   0.000   0.455   0.000
  0.000   0.000  -0.606   0.000   0.000   0.000   0.000   0.455
  0.000   0.000   0.000  -0.604   0.000   0.000   0.000   0.000
  0.000   0.000   0.000   0.000  -0.603   0.000   0.000   0.000
  0.000   0.000  -0.002   0.000   0.000   0.000   0.000   0.000
  0.000   0.000   0.000   0.000   0.000   0.000   0.000   0.000
  0.000   0.000   0.000   0.002   0.000   0.000   0.000   0.000
  0.002   0.000   0.000   0.000   0.000   0.001   0.000   0.000
  0.000   0.002   0.000   0.000   0.000   0.000   0.001   0.000
  0.000   0.000   0.000   0.000   0.000   0.000   0.000   0.000
  0.000   0.000   0.000   0.000   0.000   0.000   0.000   0.000
  0.000   0.000   0.000   0.000   0.000   0.000   0.000   0.000
 total augmentation occupancy for first ion, spin component:           1
  1.778   0.000   0.000   0.000   0.000   0.218   0.000   0.000   0.000   0.000   0.000   0.000   0.000  -0.047   0.000   0.000
  0.000   1.665   0.000   0.000   0.000   0.000   0.345   0.000   0.000   0.000   0.000   0.000   0.000   0.000  -0.052   0.000
  0.000   0.000   1.657   0.000   0.000   0.000   0.000   0.252   0.000   0.000   0.074  -0.002   0.000   0.000   0.000   0.000
  0.000   0.000   0.000   1.665   0.000   0.000   0.000   0.000   0.345   0.000   0.000   0.000  -0.052   0.000   0.000   0.007
  0.000   0.000   0.000   0.000   1.474   0.000   0.000   0.000   0.000   0.348   0.000   0.000   0.000   0.000   0.000   0.000
  0.218   0.000   0.000   0.000   0.000   0.178   0.000   0.000   0.000   0.000   0.000   0.000   0.000   0.029   0.000   0.000
  0.000   0.345   0.000   0.000   0.000   0.000   0.208   0.000   0.000   0.000   0.000   0.000   0.000   0.000   0.035   0.000
  0.000   0.000   0.252   0.000   0.000   0.000   0.000   0.172   0.000   0.000  -0.021  -0.009   0.000   0.000   0.000   0.000
  0.000   0.000   0.000   0.345   0.000   0.000   0.000   0.000   0.208   0.000   0.000   0.000   0.035   0.000   0.000   0.000
  0.000   0.000   0.000   0.000   0.348   0.000   0.000   0.000   0.000   0.175   0.000   0.000   0.000   0.000   0.000   0.000
  0.000   0.000   0.074   0.000   0.000   0.000   0.000  -0.021   0.000   0.000   1.133  -0.327   0.000   0.000   0.000   0.000
  0.000   0.000  -0.002   0.000   0.000   0.000   0.000  -0.009   0.000   0.000  -0.327   0.123   0.000   0.000   0.000   0.000
  0.000   0.000   0.000  -0.052   0.000   0.000   0.000   0.000   0.035   0.000   0.000   0.000   0.216   0.000   0.000  -0.005
 -0.047   0.000   0.000   0.000   0.000   0.029   0.000   0.000   0.000   0.000   0.000   0.000   0.000   0.200   0.000   0.000
  0.000  -0.052   0.000   0.000   0.000   0.000   0.035   0.000   0.000   0.000   0.000   0.000   0.000   0.000   0.216   0.000
  0.000   0.000   0.000   0.007   0.000   0.000   0.000   0.000   0.000   0.000   0.000   0.000  -0.005   0.000   0.000   0.000
  0.007   0.000   0.000   0.000   0.000  -0.001   0.000   0.000   0.000   0.000   0.000   0.000   0.000  -0.004   0.000   0.000
  0.000   0.007   0.000   0.000   0.000   0.000   0.000   0.000   0.000   0.000   0.000   0.000   0.000   0.000  -0.005   0.000
 total augmentation occupancy for first ion, spin component:           2
 -0.017   0.000   0.000   0.000   0.000   0.001   0.000   0.000   0.000   0.000   0.000   0.000   0.000   0.002   0.000   0.000
  0.000  -0.009   0.000   0.000   0.000   0.000  -0.003   0.000   0.000   0.000   0.000   0.000   0.000   0.000   0.002   0.000
  0.000   0.000  -0.002   0.000   0.000   0.000   0.000  -0.009   0.000   0.000  -0.009  -0.009   0.000   0.000   0.000   0.000
  0.000   0.000   0.000  -0.009   0.000   0.000   0.000   0.000  -0.003   0.000   0.000   0.000   0.002   0.000   0.000   0.000
  0.000   0.000   0.000   0.000   0.044   0.000   0.000   0.000   0.000  -0.028   0.000   0.000   0.000   0.000   0.000   0.000
  0.001   0.000   0.000   0.000   0.000   0.003   0.000   0.000   0.000   0.000   0.000   0.000   0.000  -0.005   0.000   0.000
  0.000  -0.003   0.000   0.000   0.000   0.000   0.004   0.000   0.000   0.000   0.000   0.000   0.000   0.000  -0.005   0.000
  0.000   0.000  -0.009   0.000   0.000   0.000   0.000   0.002   0.000   0.000   0.001  -0.001   0.000   0.000   0.000   0.000
  0.000   0.000   0.000  -0.003   0.000   0.000   0.000   0.000   0.004   0.000   0.000   0.000  -0.005   0.000   0.000   0.000
  0.000   0.000   0.000   0.000  -0.028   0.000   0.000   0.000   0.000   0.009   0.000   0.000   0.000   0.000   0.000   0.000
  0.000   0.000  -0.009   0.000   0.000   0.000   0.000   0.001   0.000   0.000  -0.012   0.000   0.000   0.000   0.000   0.000
  0.000   0.000  -0.009   0.000   0.000   0.000   0.000  -0.001   0.000   0.000   0.000   0.000   0.000   0.000   0.000   0.000
  0.000   0.000   0.000   0.002   0.000   0.000   0.000   0.000  -0.005   0.000   0.000   0.000  -0.004   0.000   0.000   0.000
  0.002   0.000   0.000   0.000   0.000  -0.005   0.000   0.000   0.000   0.000   0.000   0.000   0.000  -0.003   0.000   0.000
  0.000   0.002   0.000   0.000   0.000   0.000  -0.005   0.000   0.000   0.000   0.000   0.000   0.000   0.000  -0.004   0.000
  0.000   0.000   0.000   0.000   0.000   0.000   0.000   0.000   0.000   0.000   0.000   0.000   0.000   0.000   0.000   0.000
  0.000   0.000   0.000   0.000   0.000   0.000   0.000   0.000   0.000   0.000   0.000   0.000   0.000   0.000   0.000   0.000
  0.000   0.000   0.000   0.000   0.000   0.000   0.000   0.000   0.000   0.000   0.000   0.000   0.000   0.000   0.000   0.000


------------------------ aborting loop because EDIFF is reached ----------------------------------------


 


 total charge     
 
# of ion     s       p       d       tot
----------------------------------------
  1        0.376   0.382   7.253   8.012
  2        0.376   0.382   7.253   8.012
  3        0.376   0.382   7.252   8.011
  4        0.376   0.382   7.253   8.011
  5        0.376   0.382   7.253   8.012
  6        0.376   0.382   7.253   8.012
  7        0.376   0.382   7.252   8.011
  8        0.376   0.382   7.253   8.011
  9        1.074   1.336  10.111  12.522
 10        1.074   1.336  10.111  12.522
 11        1.074   1.337  10.111  12.522
 12        1.074   1.337  10.111  12.522
 13        0.448   0.589   3.399   4.436
 14        0.448   0.589   3.405   4.442
 15        0.448   0.589   3.389   4.426
 16        0.448   0.590   3.383   4.421
------------------------------------------------
tot        9.101  10.761 112.044 131.906
 


 magnetization (x)
 
# of ion     s       p       d       tot
----------------------------------------
  1       -0.004  -0.006   0.011   0.001
  2       -0.004  -0.006   0.011   0.001
  3       -0.004  -0.006   0.012   0.002
  4       -0.004  -0.006   0.011   0.002
  5       -0.004  -0.007   0.010   0.000
  6       -0.004  -0.007   0.010   0.000
  7       -0.004  -0.006   0.011   0.001
  8       -0.004  -0.006   0.010   0.000
  9       -0.007  -0.010   0.009  -0.007
 10       -0.007  -0.010   0.009  -0.007
 11       -0.007  -0.010   0.009  -0.008
 12       -0.007  -0.010   0.009  -0.008
 13        0.014   0.016   1.115   1.145
 14        0.014   0.015   1.121   1.151
 15        0.014   0.015   1.112   1.141
 16        0.014   0.015   1.107   1.136
------------------------------------------------
tot        0.002  -0.030   4.577   4.549
 
    CHARGE:  cpu time    2.12: real time    2.13
    FORLOC:  cpu time    0.00: real time    0.00
    FORNL :  cpu time   85.19: real time   85.25
    STRESS:  cpu time   81.29: real time   81.36
    FORCOR:  cpu time    0.04: real time    0.04
    FORHAR:  cpu time    0.01: real time    0.01
    MIXING:  cpu time    0.01: real time    0.01
    FORVDW:  cpu time    0.00: real time    0.00

  FORCE on cell =-STRESS in cart. coord.  units (eV):
  Direction    XX          YY          ZZ          XY          YZ          ZX
  --------------------------------------------------------------------------------------
  Alpha Z   922.24171   922.24171   922.24171
  Ewald   -4141.51585 -4141.51585 -3916.77135     0.00000     0.00000     0.00000
  Hartree   756.80813   756.80813   907.31278     0.00000     0.00000     0.00000
  E(xc)    -718.22883  -718.22883  -718.32628     0.00000     0.00000     0.00000
  Local     566.73220   566.73220   191.12509     0.00000     0.00000     0.00000
  n-local    31.38260    15.61099    27.23696     0.86832    -0.49039     0.89421
  augment  1165.38192  1165.38192  1164.02955     0.00000     0.00000     0.00000
  Kinetic  1433.99724  1430.66764  1427.69623    -0.76496     0.88534     2.81378
  Fock        0.00000     0.00000     0.00000     0.00000     0.00000     0.00000
  -------------------------------------------------------------------------------------
  Total       7.24852     7.24852     4.54469     0.00000     0.00000     0.00000
  in kB      48.11137    48.11137    30.16498     0.00000     0.00000     0.00000
  external pressure =       42.13 kB  Pullay stress =        0.00 kB


 VOLUME and BASIS-vectors are now :
 -----------------------------------------------------------------------------
  energy-cutoff  :      520.00
  volume of cell :      241.39
      direct lattice vectors                 reciprocal lattice vectors
     5.707918000  0.000000000  0.000000000     0.175195229  0.000000000  0.000000000
     0.000000000  5.707918000  0.000000000     0.000000000  0.175195229  0.000000000
     0.000000000  0.000000000  7.408951000     0.000000000  0.000000000  0.134971874

  length of vectors
     5.707918000  5.707918000  7.408951000     0.175195229  0.175195229  0.134971874


 FORCES acting on ions
    electron-ion (+dipol)            ewald-force                    non-local-force                 convergence-correction
 -----------------------------------------------------------------------------------------------
   0.102E-02 0.259E-03 0.391E-02   0.398E-03 -.295E-03 0.284E-02   0.651E-17 -.434E-17 -.173E-17   -.118E-04 0.109E-04 -.186E-03
   0.259E-03 0.102E-02 0.391E-02   -.295E-03 0.398E-03 0.284E-02   -.867E-18 -.434E-17 -.434E-17   0.109E-04 -.118E-04 -.186E-03
   0.259E-03 0.102E-02 -.117E-03   -.295E-03 0.398E-03 -.141E-02   -.173E-17 0.390E-17 0.173E-17   0.109E-04 -.118E-04 0.176E-03
   0.102E-02 0.259E-03 -.117E-03   0.398E-03 -.295E-03 -.141E-02   -.477E-17 0.434E-18 -.434E-17   -.118E-04 0.109E-04 0.176E-03
   0.259E-03 0.259E-03 0.391E-02   -.295E-03 -.295E-03 0.284E-02   0.347E-17 0.130E-17 0.347E-17   0.109E-04 0.109E-04 -.186E-03
   0.102E-02 0.102E-02 0.391E-02   0.398E-03 0.398E-03 0.284E-02   0.434E-18 0.217E-17 -.867E-18   -.118E-04 -.118E-04 -.186E-03
   0.259E-03 0.259E-03 -.117E-03   -.295E-03 -.295E-03 -.141E-02   -.520E-17 -.520E-17 -.434E-17   0.109E-04 0.109E-04 0.176E-03
   0.102E-02 0.102E-02 -.117E-03   0.398E-03 0.398E-03 -.141E-02   0.304E-17 -.173E-17 -.173E-17   -.118E-04 -.118E-04 0.176E-03
   0.108E-02 -.306E-02 0.114E-01   0.366E-03 -.518E-03 0.215E-02   0.678E-20 0.487E-20 0.000E+00   -.169E-04 0.225E-04 -.298E-03
   -.306E-02 0.108E-02 0.114E-01   -.518E-03 0.366E-03 0.215E-02   0.102E-19 -.254E-20 0.000E+00   0.225E-04 -.169E-04 -.298E-03
   -.306E-02 -.306E-02 -.102E-01   -.518E-03 -.518E-03 -.426E-02   -.508E-20 0.424E-21 0.000E+00   0.225E-04 0.225E-04 0.314E-03
   0.108E-02 0.108E-02 -.102E-01   0.366E-03 0.366E-03 -.426E-02   -.339E-20 0.508E-20 0.000E+00   -.169E-04 -.169E-04 0.314E-03
   0.576E-03 0.471E-03 -.379E-03   0.215E-03 -.269E-03 -.163E-02   0.328E-20 -.847E-21 0.000E+00   -.670E-05 0.528E-05 0.101E-03
   0.471E-03 0.576E-03 -.379E-03   -.269E-03 0.215E-03 -.163E-02   -.339E-20 -.424E-21 0.000E+00   0.528E-05 -.670E-05 0.101E-03
   0.471E-03 0.471E-03 0.426E-03   -.269E-03 -.269E-03 0.872E-03   -.339E-20 0.000E+00 0.000E+00   0.528E-05 0.528E-05 -.963E-04
   0.576E-03 0.576E-03 0.426E-03   0.215E-03 0.215E-03 0.872E-03   -.434E-20 -.127E-20 0.000E+00   -.670E-05 -.670E-05 -.963E-04
 -----------------------------------------------------------------------------------------------
   0.324E-02 0.324E-02 0.178E-01   -.290E-13 -.313E-14 -.497E-13   0.868E-18 -.780E-17 -.121E-16   0.500E-05 0.500E-05 -.135E-05
 
 
 POSITION                                       TOTAL-FORCE (eV/Angst)
 -----------------------------------------------------------------------------------
      0.00000      2.85396      3.70447         0.000000      0.000000      0.000000
      2.85396      0.00000      3.70447         0.000000      0.000000      0.000000
      2.85396      0.00000      0.00000         0.000000      0.000000      0.000000
      0.00000      2.85396      0.00000         0.000000      0.000000      0.000000
      2.85396      2.85396      3.70447         0.000000      0.000000      0.000000
      0.00000      0.00000      3.70447         0.000000      0.000000      0.000000
      2.85396      2.85396      0.00000         0.000000      0.000000      0.000000
      0.00000      0.00000      0.00000         0.000000      0.000000      0.000000
      1.42698      4.28094      5.55671         0.000000      0.000000      0.000000
      4.28094      1.42698      5.55671         0.000000      0.000000      0.000000
      4.28094      4.28094      1.85224         0.000000      0.000000      0.000000
      1.42698      1.42698      1.85224         0.000000      0.000000      0.000000
      1.42698      4.28094      1.85224         0.000000      0.000000      0.000000
      4.28094      1.42698      1.85224         0.000000      0.000000      0.000000
      4.28094      4.28094      5.55671         0.000000      0.000000      0.000000
      1.42698      1.42698      5.55671         0.000000      0.000000      0.000000
 -----------------------------------------------------------------------------------
    total drift:                                0.003250      0.003250      0.017752


--------------------------------------------------------------------------------------------------------



  FREE ENERGIE OF THE ION-ELECTRON SYSTEM (eV)
  ---------------------------------------------------
  free  energy   TOTEN  =      -116.50243230 eV

  energy  without entropy=     -116.50243230  energy(sigma->0) =     -116.50243230
 


--------------------------------------------------------------------------------------------------------


    POTLOK:  cpu time    0.08: real time    0.08


--------------------------------------------------------------------------------------------------------


     LOOP+:  cpu time 2163.56: real time 2167.96
    4ORBIT:  cpu time    0.00: real time    0.00
 


 total charge     
 
# of ion     s       p       d       tot
----------------------------------------
  1        0.376   0.382   7.253   8.012
  2        0.376   0.382   7.253   8.012
  3        0.376   0.382   7.252   8.011
  4        0.376   0.382   7.253   8.011
  5        0.376   0.382   7.253   8.012
  6        0.376   0.382   7.253   8.012
  7        0.376   0.382   7.252   8.011
  8        0.376   0.382   7.253   8.011
  9        1.074   1.336  10.111  12.522
 10        1.074   1.336  10.111  12.522
 11        1.074   1.337  10.111  12.522
 12        1.074   1.337  10.111  12.522
 13        0.448   0.589   3.399   4.436
 14        0.448   0.589   3.405   4.442
 15        0.448   0.589   3.389   4.426
 16        0.448   0.590   3.383   4.421
------------------------------------------------
tot        9.101  10.761 112.044 131.906
 


 magnetization (x)
 
# of ion     s       p       d       tot
----------------------------------------
  1       -0.004  -0.006   0.011   0.001
  2       -0.004  -0.006   0.011   0.001
  3       -0.004  -0.006   0.012   0.002
  4       -0.004  -0.006   0.011   0.002
  5       -0.004  -0.007   0.010   0.000
  6       -0.004  -0.007   0.010   0.000
  7       -0.004  -0.006   0.011   0.001
  8       -0.004  -0.006   0.010   0.000
  9       -0.007  -0.010   0.009  -0.007
 10       -0.007  -0.010   0.009  -0.007
 11       -0.007  -0.010   0.009  -0.008
 12       -0.007  -0.010   0.009  -0.008
 13        0.014   0.016   1.115   1.145
 14        0.014   0.015   1.121   1.151
 15        0.014   0.015   1.112   1.141
 16        0.014   0.015   1.107   1.136
------------------------------------------------
tot        0.002  -0.030   4.577   4.549
 
 BZINTS: Fermi energy:  9.003173;148.000000 electrons
         Band energy: 122.864900;  BLOECHL correction: -0.047535

 total amount of memory used by VASP on root node   268934. kBytes
========================================================================

   base      :      30000. kBytes
   nonl-proj :      42823. kBytes
   fftplans  :        728. kBytes
   grid      :       1777. kBytes
   one-center:        124. kBytes
   wavefun   :     193482. kBytes
 
  
  
 General timing and accounting informations for this job:
 ========================================================
  
                  Total CPU time used (sec):     2207.539
                            User time (sec):     2098.131
                          System time (sec):      109.408
                         Elapsed time (sec):     2213.267
  
                   Maximum memory used (kb):      645316.
                   Average memory used (kb):           0.
  
                          Minor page faults:       387809
                          Major page faults:            3
                 Voluntary context switches:         1379
