  12  12   1   0
  0.1061489E+02  0.4703057E-09  0.4703057E-09  0.6139345E-09  0.5000000E-15
  1.000000000000000E-004
  CAR 
 unknown system                          
     15.47622564    -17.66514643  301      3.74489821      1.00000000
    -17.665  0.0000E+00  0.0000E+00  0.0000E+00  0.0000E+00
    -17.555  0.0000E+00  0.0000E+00  0.0000E+00  0.0000E+00
    -17.444  0.0000E+00  0.0000E+00  0.0000E+00  0.0000E+00
    -17.334  0.0000E+00  0.0000E+00  0.0000E+00  0.0000E+00
    -17.223  0.0000E+00  0.0000E+00  0.0000E+00  0.0000E+00
    -17.113  0.0000E+00  0.0000E+00  0.0000E+00  0.0000E+00
    -17.002  0.0000E+00  0.0000E+00  0.0000E+00  0.0000E+00
    -16.892  0.0000E+00  0.0000E+00  0.0000E+00  0.0000E+00
    -16.781  0.1034E-19  0.5687E-18  0.1142E-20  0.6282E-19
    -16.671  0.8964E-17  0.2631E-15  0.9914E-18  0.2913E-16
    -16.560  0.3084E-14  0.6521E-13  0.3416E-15  0.7233E-14
    -16.450  0.5949E-12  0.9083E-11  0.6606E-13  0.1011E-11
    -16.339  0.6464E-10  0.7149E-09  0.7207E-11  0.7998E-10
    -16.229  0.3982E-08  0.3203E-07  0.4471E-09  0.3619E-08
    -16.119  0.1403E-06  0.8255E-06  0.1594E-07  0.9481E-07
    -16.008  0.2858E-05  0.1241E-04  0.3317E-06  0.1466E-05
    -15.898  0.3426E-04  0.1112E-03  0.4117E-05  0.1375E-04
    -15.787  0.2478E-03  0.6121E-03  0.3149E-04  0.8137E-04
    -15.677  0.1123E-02  0.2170E-02  0.1556E-03  0.3211E-03
    -15.566  0.3376E-02  0.5294E-02  0.5285E-03  0.9059E-03
    -15.456  0.7294E-02  0.9710E-02  0.1334E-02  0.1979E-02
    -15.345  0.1241E-01  0.1469E-01  0.2706E-02  0.3601E-02
    -15.235  0.1780E-01  0.1952E-01  0.4672E-02  0.5757E-02
    -15.124  0.2208E-01  0.2366E-01  0.7111E-02  0.8371E-02
    -15.014  0.2526E-01  0.2858E-01  0.9901E-02  0.1153E-01
    -14.903  0.3143E-01  0.3842E-01  0.1337E-01  0.1577E-01
    -14.793  0.4514E-01  0.5533E-01  0.1836E-01  0.2188E-01
    -14.682  0.6424E-01  0.7595E-01  0.2546E-01  0.3028E-01
    -14.572  0.8023E-01  0.9316E-01  0.3432E-01  0.4057E-01
    -14.461  0.8663E-01  0.1009E+00  0.4389E-01  0.5171E-01
    -14.351  0.8703E-01  0.9747E-01  0.5350E-01  0.6248E-01
    -14.241  0.8479E-01  0.7990E-01  0.6287E-01  0.7131E-01
    -14.130  0.7275E-01  0.4976E-01  0.7091E-01  0.7681E-01
    -14.020  0.4864E-01  0.2149E-01  0.7628E-01  0.7918E-01
    -13.909  0.2358E-01  0.6144E-02  0.7889E-01  0.7986E-01
    -13.799  0.7971E-02  0.1134E-02  0.7977E-01  0.7998E-01
    -13.688  0.1816E-02  0.1323E-03  0.7997E-01  0.8000E-01
    -13.578  0.2686E-03  0.9525E-05  0.8000E-01  0.8000E-01
    -13.467  0.2478E-04  0.4126E-06  0.8000E-01  0.8000E-01
    -13.357  0.1378E-05  0.1052E-07  0.8000E-01  0.8000E-01
    -13.246  0.4499E-07  0.1549E-09  0.8000E-01  0.8000E-01
    -13.136  0.8467E-09  0.1300E-11  0.8000E-01  0.8000E-01
    -13.025  0.9065E-11  0.6155E-14  0.8000E-01  0.8000E-01
    -12.915  0.5470E-13  0.1596E-16  0.8000E-01  0.8000E-01
    -12.804  0.1845E-15  0.0000E+00  0.8000E-01  0.8000E-01
    -12.694  0.2068E-18  0.0000E+00  0.8000E-01  0.8000E-01
    -12.583  0.0000E+00  0.0000E+00  0.8000E-01  0.8000E-01
    -12.473  0.0000E+00  0.0000E+00  0.8000E-01  0.8000E-01
    -12.363  0.0000E+00  0.0000E+00  0.8000E-01  0.8000E-01
    -12.252  0.0000E+00  0.0000E+00  0.8000E-01  0.8000E-01
    -12.142  0.0000E+00  0.0000E+00  0.8000E-01  0.8000E-01
    -12.031  0.0000E+00  0.0000E+00  0.8000E-01  0.8000E-01
    -11.921  0.0000E+00  0.0000E+00  0.8000E-01  0.8000E-01
    -11.810  0.0000E+00  0.0000E+00  0.8000E-01  0.8000E-01
    -11.700  0.0000E+00  0.0000E+00  0.8000E-01  0.8000E-01
    -11.589  0.0000E+00  0.0000E+00  0.8000E-01  0.8000E-01
    -11.479  0.0000E+00  0.0000E+00  0.8000E-01  0.8000E-01
    -11.368  0.0000E+00  0.0000E+00  0.8000E-01  0.8000E-01
    -11.258  0.1096E-17  0.1861E-18  0.8000E-01  0.8000E-01
    -11.147  0.1258E-14  0.7603E-15  0.8000E-01  0.8000E-01
    -11.037  0.4069E-12  0.2578E-12  0.8000E-01  0.8000E-01
    -10.926  0.7308E-10  0.4851E-10  0.8000E-01  0.8000E-01
    -10.816  0.7304E-08  0.5077E-08  0.8000E-01  0.8000E-01
    -10.705  0.4076E-06  0.2967E-06  0.8000E-01  0.8000E-01
    -10.595  0.1275E-04  0.9723E-05  0.8000E-01  0.8000E-01
    -10.485  0.2247E-03  0.1794E-03  0.8003E-01  0.8002E-01
    -10.374  0.2239E-02  0.1873E-02  0.8027E-01  0.8023E-01
    -10.264  0.1269E-01  0.1113E-01  0.8168E-01  0.8146E-01
    -10.153  0.4132E-01  0.3800E-01  0.8624E-01  0.8565E-01
    -10.043  0.7953E-01  0.7645E-01  0.9503E-01  0.9410E-01
     -9.932  0.9785E-01  0.9742E-01  0.1058E+00  0.1049E+00
     -9.822  0.9013E-01  0.9150E-01  0.1158E+00  0.1150E+00
     -9.711  0.6947E-01  0.7175E-01  0.1235E+00  0.1229E+00
     -9.601  0.4037E-01  0.4308E-01  0.1279E+00  0.1277E+00
     -9.490  0.1503E-01  0.1679E-01  0.1296E+00  0.1295E+00
     -9.380  0.3298E-02  0.3876E-02  0.1300E+00  0.1299E+00
     -9.269  0.4134E-03  0.5124E-03  0.1300E+00  0.1300E+00
     -9.159  0.2927E-04  0.3831E-04  0.1300E+00  0.1300E+00
     -9.048  0.1164E-05  0.1610E-05  0.1300E+00  0.1300E+00
     -8.938  0.2589E-07  0.3783E-07  0.1300E+00  0.1300E+00
     -8.827  0.3208E-09  0.4957E-09  0.1300E+00  0.1300E+00
     -8.717  0.2207E-11  0.3607E-11  0.1300E+00  0.1300E+00
     -8.607  0.8414E-14  0.1454E-13  0.1300E+00  0.1300E+00
     -8.496  0.1611E-16  0.2926E-16  0.1300E+00  0.1300E+00
     -8.386  0.0000E+00  0.0000E+00  0.1300E+00  0.1300E+00
     -8.275  0.0000E+00  0.0000E+00  0.1300E+00  0.1300E+00
     -8.165  0.0000E+00  0.0000E+00  0.1300E+00  0.1300E+00
     -8.054  0.0000E+00  0.0000E+00  0.1300E+00  0.1300E+00
     -7.944  0.0000E+00  0.0000E+00  0.1300E+00  0.1300E+00
     -7.833  0.0000E+00  0.0000E+00  0.1300E+00  0.1300E+00
     -7.723  0.0000E+00  0.0000E+00  0.1300E+00  0.1300E+00
     -7.612  0.0000E+00  0.0000E+00  0.1300E+00  0.1300E+00
     -7.502  0.0000E+00  0.0000E+00  0.1300E+00  0.1300E+00
     -7.391  0.0000E+00  0.0000E+00  0.1300E+00  0.1300E+00
     -7.281  0.0000E+00  0.0000E+00  0.1300E+00  0.1300E+00
     -7.170  0.0000E+00  0.0000E+00  0.1300E+00  0.1300E+00
     -7.060  0.0000E+00  0.0000E+00  0.1300E+00  0.1300E+00
     -6.949  0.0000E+00  0.0000E+00  0.1300E+00  0.1300E+00
     -6.839  0.0000E+00  0.0000E+00  0.1300E+00  0.1300E+00
     -6.728  0.0000E+00  0.0000E+00  0.1300E+00  0.1300E+00
     -6.618  0.0000E+00  0.0000E+00  0.1300E+00  0.1300E+00
     -6.508  0.0000E+00  0.0000E+00  0.1300E+00  0.1300E+00
     -6.397  0.0000E+00  0.0000E+00  0.1300E+00  0.1300E+00
     -6.287  0.0000E+00  0.0000E+00  0.1300E+00  0.1300E+00
     -6.176  0.0000E+00  0.0000E+00  0.1300E+00  0.1300E+00
     -6.066  0.0000E+00  0.0000E+00  0.1300E+00  0.1300E+00
     -5.955  0.0000E+00  0.0000E+00  0.1300E+00  0.1300E+00
     -5.845  0.0000E+00  0.0000E+00  0.1300E+00  0.1300E+00
     -5.734  0.0000E+00  0.0000E+00  0.1300E+00  0.1300E+00
     -5.624  0.0000E+00  0.0000E+00  0.1300E+00  0.1300E+00
     -5.513  0.0000E+00  0.0000E+00  0.1300E+00  0.1300E+00
     -5.403  0.0000E+00  0.0000E+00  0.1300E+00  0.1300E+00
     -5.292  0.0000E+00  0.0000E+00  0.1300E+00  0.1300E+00
     -5.182  0.0000E+00  0.0000E+00  0.1300E+00  0.1300E+00
     -5.071  0.0000E+00  0.0000E+00  0.1300E+00  0.1300E+00
     -4.961  0.1034E-17  0.0000E+00  0.1300E+00  0.1300E+00
     -4.850  0.4779E-15  0.0000E+00  0.1300E+00  0.1300E+00
     -4.740  0.1171E-12  0.0000E+00  0.1300E+00  0.1300E+00
     -4.630  0.1609E-10  0.2068E-18  0.1300E+00  0.1300E+00
     -4.519  0.1249E-08  0.1217E-15  0.1300E+00  0.1300E+00
     -4.409  0.5522E-07  0.3418E-13  0.1300E+00  0.1300E+00
     -4.298  0.1406E-05  0.5379E-11  0.1300E+00  0.1300E+00
     -4.188  0.2094E-04  0.4772E-09  0.1300E+00  0.1300E+00
     -4.077  0.1864E-03  0.2406E-07  0.1300E+00  0.1300E+00
     -3.967  0.1021E-02  0.6970E-06  0.1301E+00  0.1300E+00
     -3.856  0.3586E-02  0.1178E-04  0.1305E+00  0.1300E+00
     -3.746  0.8443E-02  0.1186E-03  0.1315E+00  0.1300E+00
     -3.635  0.1399E-01  0.7329E-03  0.1330E+00  0.1301E+00
     -3.525  0.1714E-01  0.2884E-02  0.1349E+00  0.1304E+00
     -3.414  0.1637E-01  0.7555E-02  0.1367E+00  0.1312E+00
     -3.304  0.1324E-01  0.1379E-01  0.1382E+00  0.1328E+00
     -3.193  0.1082E-01  0.1824E-01  0.1394E+00  0.1348E+00
     -3.083  0.1138E-01  0.1802E-01  0.1406E+00  0.1368E+00
     -2.972  0.1492E-01  0.1372E-01  0.1423E+00  0.1383E+00
     -2.862  0.1974E-01  0.8516E-02  0.1445E+00  0.1392E+00
     -2.752  0.2470E-01  0.5136E-02  0.1472E+00  0.1398E+00
     -2.641  0.3044E-01  0.5074E-02  0.1505E+00  0.1404E+00
     -2.531  0.3800E-01  0.9064E-02  0.1547E+00  0.1414E+00
     -2.420  0.4713E-01  0.1607E-01  0.1600E+00  0.1431E+00
     -2.310  0.5632E-01  0.2357E-01  0.1662E+00  0.1457E+00
     -2.199  0.6217E-01  0.3096E-01  0.1730E+00  0.1492E+00
     -2.089  0.6244E-01  0.3946E-01  0.1799E+00  0.1535E+00
     -1.978  0.5969E-01  0.4723E-01  0.1865E+00  0.1587E+00
     -1.868  0.5662E-01  0.5157E-01  0.1928E+00  0.1644E+00
     -1.757  0.5359E-01  0.5551E-01  0.1987E+00  0.1706E+00
     -1.647  0.5140E-01  0.6110E-01  0.2044E+00  0.1773E+00
     -1.536  0.4953E-01  0.6192E-01  0.2099E+00  0.1842E+00
     -1.426  0.4647E-01  0.5533E-01  0.2150E+00  0.1903E+00
     -1.315  0.4384E-01  0.5059E-01  0.2198E+00  0.1959E+00
     -1.205  0.4439E-01  0.5369E-01  0.2247E+00  0.2018E+00
     -1.094  0.4851E-01  0.5747E-01  0.2301E+00  0.2081E+00
     -0.984  0.5306E-01  0.5461E-01  0.2360E+00  0.2142E+00
     -0.874  0.5515E-01  0.4828E-01  0.2421E+00  0.2195E+00
     -0.763  0.5658E-01  0.4454E-01  0.2483E+00  0.2244E+00
     -0.653  0.5891E-01  0.4536E-01  0.2548E+00  0.2294E+00
     -0.542  0.5920E-01  0.5067E-01  0.2613E+00  0.2350E+00
     -0.432  0.5531E-01  0.5863E-01  0.2675E+00  0.2415E+00
     -0.321  0.4859E-01  0.6378E-01  0.2728E+00  0.2486E+00
     -0.211  0.4091E-01  0.6136E-01  0.2773E+00  0.2553E+00
     -0.100  0.3455E-01  0.5413E-01  0.2812E+00  0.2613E+00
      0.010  0.3216E-01  0.4883E-01  0.2847E+00  0.2667E+00
      0.121  0.3476E-01  0.4716E-01  0.2886E+00  0.2719E+00
      0.231  0.4105E-01  0.4654E-01  0.2931E+00  0.2771E+00
      0.342  0.4803E-01  0.4617E-01  0.2984E+00  0.2822E+00
      0.452  0.5244E-01  0.4789E-01  0.3042E+00  0.2875E+00
      0.563  0.5379E-01  0.5257E-01  0.3101E+00  0.2933E+00
      0.673  0.5435E-01  0.5873E-01  0.3161E+00  0.2998E+00
      0.784  0.5447E-01  0.6398E-01  0.3222E+00  0.3068E+00
      0.894  0.5300E-01  0.6723E-01  0.3280E+00  0.3142E+00
      1.004  0.5024E-01  0.6844E-01  0.3336E+00  0.3218E+00
      1.115  0.4790E-01  0.6633E-01  0.3389E+00  0.3291E+00
      1.225  0.4758E-01  0.6020E-01  0.3441E+00  0.3358E+00
      1.336  0.4889E-01  0.5427E-01  0.3495E+00  0.3418E+00
      1.446  0.5036E-01  0.5349E-01  0.3551E+00  0.3477E+00
      1.557  0.5248E-01  0.5501E-01  0.3609E+00  0.3538E+00
      1.667  0.5605E-01  0.5147E-01  0.3671E+00  0.3595E+00
      1.778  0.5777E-01  0.4121E-01  0.3734E+00  0.3640E+00
      1.888  0.5343E-01  0.2822E-01  0.3793E+00  0.3671E+00
      1.999  0.4384E-01  0.1605E-01  0.3842E+00  0.3689E+00
      2.109  0.3427E-01  0.7091E-02  0.3880E+00  0.3697E+00
      2.220  0.2958E-01  0.2303E-02  0.3912E+00  0.3699E+00
      2.330  0.2861E-01  0.5277E-03  0.3944E+00  0.3700E+00
      2.441  0.2502E-01  0.8147E-04  0.3972E+00  0.3700E+00
      2.551  0.1687E-01  0.8064E-05  0.3990E+00  0.3700E+00
      2.662  0.9643E-02  0.4894E-06  0.4001E+00  0.3700E+00
      2.772  0.8030E-02  0.1763E-07  0.4010E+00  0.3700E+00
      2.883  0.1206E-01  0.3693E-09  0.4023E+00  0.3700E+00
      2.993  0.1924E-01  0.4434E-11  0.4044E+00  0.3700E+00
      3.103  0.2556E-01  0.3025E-13  0.4073E+00  0.3700E+00
      3.214  0.2824E-01  0.1162E-15  0.4104E+00  0.3700E+00
      3.324  0.2828E-01  0.1861E-18  0.4135E+00  0.3700E+00
      3.435  0.2580E-01  0.0000E+00  0.4164E+00  0.3700E+00
      3.545  0.1894E-01  0.0000E+00  0.4184E+00  0.3700E+00
      3.656  0.1010E-01  0.0000E+00  0.4196E+00  0.3700E+00
      3.766  0.4697E-02  0.0000E+00  0.4201E+00  0.3700E+00
      3.877  0.5160E-02  0.0000E+00  0.4207E+00  0.3700E+00
      3.987  0.1062E-01  0.4136E-19  0.4218E+00  0.3700E+00
      4.098  0.1885E-01  0.1189E-15  0.4239E+00  0.3700E+00
      4.208  0.2625E-01  0.3977E-13  0.4268E+00  0.3700E+00
      4.319  0.2918E-01  0.7392E-11  0.4300E+00  0.3700E+00
      4.429  0.2762E-01  0.7659E-09  0.4331E+00  0.3700E+00
      4.540  0.2402E-01  0.4444E-07  0.4357E+00  0.3700E+00
      4.650  0.1909E-01  0.1453E-05  0.4378E+00  0.3700E+00
      4.761  0.1355E-01  0.2699E-04  0.4393E+00  0.3700E+00
      4.871  0.1209E-01  0.2879E-03  0.4407E+00  0.3700E+00
      4.981  0.1994E-01  0.1794E-02  0.4429E+00  0.3702E+00
      5.092  0.3430E-01  0.6714E-02  0.4467E+00  0.3710E+00
      5.202  0.4458E-01  0.1592E-01  0.4516E+00  0.3727E+00
      5.313  0.4587E-01  0.2633E-01  0.4567E+00  0.3756E+00
      5.423  0.4462E-01  0.3457E-01  0.4616E+00  0.3795E+00
      5.534  0.4783E-01  0.3913E-01  0.4669E+00  0.3838E+00
      5.644  0.5724E-01  0.3932E-01  0.4732E+00  0.3881E+00
      5.755  0.6923E-01  0.3862E-01  0.4808E+00  0.3924E+00
      5.865  0.7245E-01  0.4109E-01  0.4889E+00  0.3969E+00
      5.976  0.5691E-01  0.4735E-01  0.4951E+00  0.4022E+00
      6.086  0.3057E-01  0.5946E-01  0.4985E+00  0.4087E+00
      6.197  0.1072E-01  0.7634E-01  0.4997E+00  0.4172E+00
      6.307  0.2685E-02  0.9042E-01  0.5000E+00  0.4272E+00
      6.418  0.1804E-02  0.9648E-01  0.5002E+00  0.4378E+00
      6.528  0.4887E-02  0.9519E-01  0.5007E+00  0.4483E+00
      6.639  0.1136E-01  0.8508E-01  0.5020E+00  0.4577E+00
      6.749  0.1998E-01  0.6242E-01  0.5042E+00  0.4646E+00
      6.859  0.2884E-01  0.3386E-01  0.5074E+00  0.4684E+00
      6.970  0.3582E-01  0.1340E-01  0.5113E+00  0.4698E+00
      7.080  0.3607E-01  0.6297E-02  0.5153E+00  0.4705E+00
      7.191  0.2607E-01  0.7670E-02  0.5182E+00  0.4714E+00
      7.301  0.1234E-01  0.1114E-01  0.5196E+00  0.4726E+00
      7.412  0.3939E-02  0.1308E-01  0.5200E+00  0.4741E+00
      7.522  0.1517E-02  0.1386E-01  0.5202E+00  0.4756E+00
      7.633  0.1442E-02  0.1776E-01  0.5203E+00  0.4776E+00
      7.743  0.1785E-02  0.2935E-01  0.5205E+00  0.4808E+00
      7.854  0.2355E-02  0.4542E-01  0.5208E+00  0.4858E+00
      7.964  0.3081E-02  0.5282E-01  0.5211E+00  0.4916E+00
      8.075  0.3668E-02  0.4465E-01  0.5215E+00  0.4966E+00
      8.185  0.4170E-02  0.3111E-01  0.5220E+00  0.5000E+00
      8.296  0.4861E-02  0.2375E-01  0.5225E+00  0.5026E+00
      8.406  0.5850E-02  0.2343E-01  0.5232E+00  0.5052E+00
      8.517  0.7119E-02  0.2672E-01  0.5240E+00  0.5082E+00
      8.627  0.8866E-02  0.3069E-01  0.5249E+00  0.5116E+00
      8.737  0.1097E-01  0.3248E-01  0.5262E+00  0.5152E+00
      8.848  0.1214E-01  0.3126E-01  0.5275E+00  0.5186E+00
      8.958  0.1086E-01  0.2808E-01  0.5287E+00  0.5217E+00
      9.069  0.7243E-02  0.2339E-01  0.5295E+00  0.5243E+00
      9.179  0.3348E-02  0.1810E-01  0.5299E+00  0.5263E+00
      9.290  0.1005E-02  0.1342E-01  0.5300E+00  0.5278E+00
      9.400  0.1865E-03  0.9398E-02  0.5300E+00  0.5288E+00
      9.511  0.2067E-04  0.5885E-02  0.5300E+00  0.5295E+00
      9.621  0.1410E-05  0.3098E-02  0.5300E+00  0.5298E+00
      9.732  0.1302E-05  0.1260E-02  0.5300E+00  0.5300E+00
      9.842  0.1236E-04  0.3618E-03  0.5300E+00  0.5300E+00
      9.953  0.7355E-04  0.8428E-04  0.5300E+00  0.5300E+00
     10.063  0.2840E-03  0.9944E-04  0.5300E+00  0.5300E+00
     10.174  0.7841E-03  0.3155E-03  0.5301E+00  0.5300E+00
     10.284  0.1683E-02  0.7958E-03  0.5303E+00  0.5301E+00
     10.395  0.2927E-02  0.1621E-02  0.5306E+00  0.5303E+00
     10.505  0.4269E-02  0.2753E-02  0.5311E+00  0.5306E+00
     10.615  0.5501E-02  0.3985E-02  0.5317E+00  0.5311E+00
     10.726  0.6712E-02  0.5150E-02  0.5325E+00  0.5316E+00
     10.836  0.8105E-02  0.6321E-02  0.5334E+00  0.5323E+00
     10.947  0.9418E-02  0.7615E-02  0.5344E+00  0.5332E+00
     11.057  0.9950E-02  0.8954E-02  0.5355E+00  0.5342E+00
     11.168  0.9541E-02  0.1001E-01  0.5365E+00  0.5353E+00
     11.278  0.8972E-02  0.1016E-01  0.5375E+00  0.5364E+00
     11.389  0.9226E-02  0.9627E-02  0.5386E+00  0.5374E+00
     11.499  0.1022E-01  0.9691E-02  0.5397E+00  0.5385E+00
     11.610  0.1074E-01  0.1050E-01  0.5409E+00  0.5397E+00
     11.720  0.1036E-01  0.1071E-01  0.5420E+00  0.5409E+00
     11.831  0.9861E-02  0.1012E-01  0.5431E+00  0.5420E+00
     11.941  0.9712E-02  0.9814E-02  0.5442E+00  0.5431E+00
     12.052  0.9859E-02  0.9927E-02  0.5453E+00  0.5442E+00
     12.162  0.1044E-01  0.1013E-01  0.5464E+00  0.5453E+00
     12.273  0.1118E-01  0.1062E-01  0.5477E+00  0.5465E+00
     12.383  0.1175E-01  0.1132E-01  0.5490E+00  0.5477E+00
     12.494  0.1251E-01  0.1187E-01  0.5503E+00  0.5490E+00
     12.604  0.1365E-01  0.1257E-01  0.5518E+00  0.5504E+00
     12.714  0.1487E-01  0.1370E-01  0.5535E+00  0.5519E+00
     12.825  0.1566E-01  0.1478E-01  0.5552E+00  0.5535E+00
     12.935  0.1498E-01  0.1529E-01  0.5569E+00  0.5552E+00
     13.046  0.1213E-01  0.1457E-01  0.5582E+00  0.5568E+00
     13.156  0.8159E-02  0.1188E-01  0.5591E+00  0.5582E+00
     13.267  0.4680E-02  0.8103E-02  0.5596E+00  0.5591E+00
     13.377  0.2261E-02  0.4779E-02  0.5599E+00  0.5596E+00
     13.488  0.8369E-03  0.2425E-02  0.5600E+00  0.5599E+00
     13.598  0.2116E-03  0.9806E-03  0.5600E+00  0.5600E+00
     13.709  0.3373E-04  0.2898E-03  0.5600E+00  0.5600E+00
     13.819  0.3238E-05  0.5835E-04  0.5600E+00  0.5600E+00
     13.930  0.1823E-06  0.7544E-05  0.5600E+00  0.5600E+00
     14.040  0.5918E-08  0.5961E-06  0.5600E+00  0.5600E+00
     14.151  0.1096E-09  0.2773E-07  0.5600E+00  0.5600E+00
     14.261  0.1146E-11  0.7397E-09  0.5600E+00  0.5600E+00
     14.372  0.6721E-14  0.1113E-10  0.5600E+00  0.5600E+00
     14.482  0.2192E-16  0.9337E-13  0.5600E+00  0.5600E+00
     14.592  0.0000E+00  0.4338E-15  0.5600E+00  0.5600E+00
     14.703  0.0000E+00  0.1158E-17  0.5600E+00  0.5600E+00
     14.813  0.0000E+00  0.0000E+00  0.5600E+00  0.5600E+00
     14.924  0.0000E+00  0.0000E+00  0.5600E+00  0.5600E+00
     15.034  0.0000E+00  0.0000E+00  0.5600E+00  0.5600E+00
     15.145  0.0000E+00  0.0000E+00  0.5600E+00  0.5600E+00
     15.255  0.0000E+00  0.0000E+00  0.5600E+00  0.5600E+00
     15.366  0.0000E+00  0.0000E+00  0.5600E+00  0.5600E+00
     15.476  0.0000E+00  0.0000E+00  0.5600E+00  0.5600E+00
     15.47622564    -17.66514643  301      3.74489821      1.00000000
    -17.665  0.0000E+00  0.0000E+00  0.0000E+00  0.0000E+00  0.0000E+00  0.0000E+00  0.0000E+00  0.0000E+00  0.0000E+00  0.0000E+00  0.0000E+00  0.0000E+00  0.0000E+00  0.0000E+00  0.0000E+00  0.0000E+00  0.0000E+00  0.0000E+00
    -17.555  0.0000E+00  0.0000E+00  0.0000E+00  0.0000E+00  0.0000E+00  0.0000E+00  0.0000E+00  0.0000E+00  0.0000E+00  0.0000E+00  0.0000E+00  0.0000E+00  0.0000E+00  0.0000E+00  0.0000E+00  0.0000E+00  0.0000E+00  0.0000E+00
    -17.444  0.0000E+00  0.0000E+00  0.0000E+00  0.0000E+00  0.0000E+00  0.0000E+00  0.0000E+00  0.0000E+00  0.0000E+00  0.0000E+00  0.0000E+00  0.0000E+00  0.0000E+00  0.0000E+00  0.0000E+00  0.0000E+00  0.0000E+00  0.0000E+00
    -17.334  0.0000E+00  0.0000E+00  0.0000E+00  0.0000E+00  0.0000E+00  0.0000E+00  0.0000E+00  0.0000E+00  0.0000E+00  0.0000E+00  0.0000E+00  0.0000E+00  0.0000E+00  0.0000E+00  0.0000E+00  0.0000E+00  0.0000E+00  0.0000E+00
    -17.223  0.0000E+00  0.0000E+00  0.0000E+00  0.0000E+00  0.0000E+00  0.0000E+00  0.0000E+00  0.0000E+00  0.0000E+00  0.0000E+00  0.0000E+00  0.0000E+00  0.0000E+00  0.0000E+00  0.0000E+00  0.0000E+00  0.0000E+00  0.0000E+00
    -17.113  0.0000E+00  0.0000E+00  0.0000E+00  0.0000E+00  0.0000E+00  0.0000E+00  0.0000E+00  0.0000E+00  0.0000E+00  0.0000E+00  0.0000E+00  0.0000E+00  0.0000E+00  0.0000E+00  0.0000E+00  0.0000E+00  0.0000E+00  0.0000E+00
    -17.002  0.0000E+00  0.0000E+00  0.0000E+00  0.0000E+00  0.0000E+00  0.0000E+00  0.0000E+00  0.0000E+00  0.0000E+00  0.0000E+00  0.0000E+00  0.0000E+00  0.0000E+00  0.0000E+00  0.0000E+00  0.0000E+00  0.0000E+00  0.0000E+00
    -16.892  0.0000E+00  0.0000E+00  0.0000E+00  0.0000E+00  0.0000E+00  0.0000E+00  0.0000E+00  0.0000E+00  0.0000E+00  0.0000E+00  0.0000E+00  0.0000E+00  0.0000E+00  0.0000E+00  0.0000E+00  0.0000E+00  0.0000E+00  0.0000E+00
    -16.781  0.3799E-19  0.1939E-17  0.3550E-29  0.2267E-20  0.2651E-29  0.3448E-20  0.1557E-28  0.4749E-20  0.1722E-33  0.1007E-23  0.2450E-33  0.6196E-23  0.5670E-21  0.9678E-20  0.1279E-24  0.6707E-22  0.4852E-25  0.2953E-20
    -16.671  0.3268E-16  0.8946E-15  0.4714E-19  0.1475E-17  0.1011E-18  0.2892E-17  0.7180E-19  0.2688E-17  0.3036E-22  0.7873E-21  0.4241E-21  0.1426E-19  0.5021E-18  0.4415E-17  0.1258E-21  0.3240E-19  0.1866E-20  0.1421E-17
    -16.560  0.1123E-13  0.2214E-12  0.1883E-16  0.4122E-15  0.4136E-16  0.8517E-15  0.2806E-16  0.7582E-15  0.1308E-19  0.2342E-18  0.1988E-18  0.4560E-17  0.1730E-15  0.1094E-14  0.4627E-19  0.8096E-17  0.7864E-18  0.3551E-15
    -16.450  0.2163E-11  0.3079E-10  0.4090E-14  0.6488E-13  0.9534E-14  0.1401E-12  0.6127E-14  0.1201E-12  0.3050E-17  0.3984E-16  0.5003E-16  0.8239E-15  0.3342E-13  0.1524E-12  0.9645E-17  0.1141E-14  0.1851E-15  0.5000E-13
    -16.339  0.2346E-09  0.2419E-08  0.5029E-12  0.5811E-11  0.1230E-11  0.1296E-10  0.7557E-12  0.1079E-10  0.4108E-15  0.3943E-14  0.7143E-14  0.8518E-13  0.3639E-11  0.1200E-10  0.1160E-14  0.9118E-13  0.2516E-13  0.3993E-11
    -16.229  0.1443E-07  0.1081E-06  0.3538E-10  0.2997E-09  0.8953E-10  0.6808E-09  0.5320E-10  0.5577E-09  0.3234E-13  0.2301E-12  0.5855E-12  0.5106E-11  0.2248E-09  0.5389E-09  0.8157E-13  0.4175E-11  0.2006E-11  0.1825E-09
    -16.119  0.5070E-06  0.2780E-05  0.1441E-08  0.9028E-08  0.3720E-08  0.2062E-07  0.2166E-08  0.1682E-07  0.1509E-11  0.8034E-11  0.2797E-10  0.1806E-09  0.7959E-08  0.1396E-07  0.3421E-11  0.1111E-09  0.9542E-10  0.4846E-08
    -16.008  0.1030E-04  0.4166E-04  0.3458E-07  0.1619E-06  0.8980E-07  0.3671E-06  0.5186E-07  0.3019E-06  0.4235E-10  0.1709E-09  0.7943E-09  0.3854E-08  0.1635E-06  0.2120E-06  0.8767E-10  0.1756E-08  0.2764E-08  0.7637E-07
    -15.898  0.1231E-03  0.3716E-03  0.4986E-06  0.1773E-05  0.1289E-05  0.3948E-05  0.7453E-06  0.3308E-05  0.7310E-09  0.2273E-08  0.1377E-07  0.5115E-07  0.1987E-05  0.1935E-05  0.1419E-08  0.1710E-07  0.5001E-07  0.7399E-06
    -15.787  0.8861E-03  0.2036E-02  0.4445E-05  0.1227E-04  0.1136E-04  0.2648E-04  0.6607E-05  0.2287E-04  0.8006E-08  0.1965E-07  0.1509E-06  0.4387E-06  0.1470E-04  0.1102E-04  0.1512E-07  0.1081E-06  0.5850E-06  0.4645E-05
    -15.677  0.3993E-02  0.7171E-02  0.2545E-04  0.5605E-04  0.6390E-04  0.1156E-03  0.3746E-04  0.1043E-03  0.5812E-07  0.1162E-06  0.1091E-05  0.2559E-05  0.6935E-04  0.4173E-04  0.1114E-06  0.4771E-06  0.4635E-05  0.2029E-04
    -15.566  0.1192E-01  0.1736E-01  0.9833E-04  0.1786E-03  0.2415E-03  0.3506E-03  0.1422E-03  0.3306E-03  0.2947E-06  0.4976E-06  0.5510E-05  0.1092E-04  0.2248E-03  0.1161E-03  0.5960E-06  0.1599E-05  0.2617E-04  0.6686E-04
    -15.456  0.2555E-01  0.3143E-01  0.2707E-03  0.4188E-03  0.6685E-03  0.8367E-03  0.3803E-03  0.7691E-03  0.1097E-05  0.1624E-05  0.2104E-04  0.3758E-04  0.5549E-03  0.2679E-03  0.2395E-05  0.4390E-05  0.1091E-03  0.1791E-03
    -15.345  0.4281E-01  0.4616E-01  0.5584E-03  0.7602E-03  0.1552E-02  0.1846E-02  0.7484E-03  0.1373E-02  0.3087E-05  0.4148E-05  0.6768E-04  0.1153E-03  0.1137E-02  0.5459E-03  0.7206E-05  0.1022E-04  0.3346E-03  0.4051E-03
    -15.235  0.5909E-01  0.5714E-01  0.9144E-03  0.1168E-02  0.3388E-02  0.3980E-02  0.1121E-02  0.1982E-02  0.6683E-05  0.8502E-05  0.2110E-03  0.3451E-03  0.1927E-02  0.9377E-03  0.1586E-04  0.2015E-04  0.7364E-03  0.7769E-03
    -15.124  0.6650E-01  0.5846E-01  0.1411E-02  0.1931E-02  0.6938E-02  0.7814E-02  0.1360E-02  0.2667E-02  0.1197E-04  0.1557E-04  0.7377E-03  0.1082E-02  0.2529E-02  0.1295E-02  0.2605E-04  0.3525E-04  0.1175E-02  0.1330E-02
    -15.014  0.5905E-01  0.4808E-01  0.2865E-02  0.4033E-02  0.1272E-01  0.1332E-01  0.1640E-02  0.4208E-02  0.2195E-04  0.3046E-04  0.2786E-02  0.3402E-02  0.2530E-02  0.1609E-02  0.3731E-04  0.6284E-04  0.1575E-02  0.2353E-02
    -14.903  0.4194E-01  0.3373E-01  0.7015E-02  0.8271E-02  0.2055E-01  0.2008E-01  0.2557E-02  0.7448E-02  0.4637E-04  0.6177E-04  0.8986E-02  0.9131E-02  0.2268E-02  0.2273E-02  0.5930E-04  0.1163E-03  0.2343E-02  0.4404E-02
    -14.793  0.2736E-01  0.2496E-01  0.1430E-01  0.1381E-01  0.2934E-01  0.2796E-01  0.4543E-02  0.1190E-01  0.8954E-04  0.1057E-03  0.2108E-01  0.1895E-01  0.2494E-02  0.3720E-02  0.1012E-03  0.2001E-03  0.3943E-02  0.7881E-02
    -14.682  0.2041E-01  0.2158E-01  0.2172E-01  0.1886E-01  0.3736E-01  0.3611E-01  0.7487E-02  0.1699E-01  0.1304E-03  0.1419E-03  0.3532E-01  0.3055E-01  0.3516E-02  0.6554E-02  0.1607E-03  0.3285E-03  0.6551E-02  0.1408E-01
    -14.572  0.1666E-01  0.1775E-01  0.2531E-01  0.2184E-01  0.4149E-01  0.3980E-01  0.1150E-01  0.2420E-01  0.1440E-03  0.1585E-03  0.4491E-01  0.3947E-01  0.5949E-02  0.1169E-01  0.2591E-03  0.5423E-03  0.1198E-01  0.2553E-01
    -14.461  0.1242E-01  0.1262E-01  0.2473E-01  0.2306E-01  0.3646E-01  0.3336E-01  0.1763E-01  0.3409E-01  0.1365E-03  0.1601E-03  0.4690E-01  0.4195E-01  0.1136E-01  0.1755E-01  0.4530E-03  0.7832E-03  0.2419E-01  0.3920E-01
    -14.351  0.9605E-02  0.8810E-02  0.2341E-01  0.2445E-01  0.2289E-01  0.1977E-01  0.2753E-01  0.4135E-01  0.1283E-03  0.1523E-03  0.4240E-01  0.3828E-01  0.1875E-01  0.1894E-01  0.7072E-03  0.8371E-03  0.4149E-01  0.4356E-01
    -14.241  0.9563E-02  0.6187E-02  0.2175E-01  0.2270E-01  0.1012E-01  0.8181E-02  0.3996E-01  0.3793E-01  0.1195E-03  0.1253E-03  0.3237E-01  0.2922E-01  0.2210E-01  0.1389E-01  0.8133E-03  0.6147E-03  0.5086E-01  0.3307E-01
    -14.130  0.9499E-02  0.3531E-02  0.1632E-01  0.1450E-01  0.3523E-02  0.2494E-02  0.4690E-01  0.2438E-01  0.9576E-04  0.7569E-04  0.1897E-01  0.1640E-01  0.1775E-01  0.6856E-02  0.6480E-03  0.3035E-03  0.4298E-01  0.1692E-01
    -14.020  0.6933E-02  0.1379E-02  0.8386E-02  0.5646E-02  0.1179E-02  0.6322E-03  0.4007E-01  0.1066E-01  0.5843E-04  0.2987E-04  0.7888E-02  0.6032E-02  0.9787E-02  0.2273E-02  0.3577E-03  0.9983E-04  0.2515E-01  0.5790E-02
    -13.909  0.3304E-02  0.3448E-03  0.2722E-02  0.1289E-02  0.4093E-03  0.1432E-03  0.2349E-01  0.3155E-02  0.2538E-04  0.7305E-05  0.2241E-02  0.1370E-02  0.3711E-02  0.5016E-03  0.1367E-03  0.2165E-04  0.1010E-01  0.1308E-02
    -13.799  0.9932E-03  0.5416E-04  0.5365E-03  0.1707E-03  0.1271E-03  0.2596E-04  0.9124E-02  0.6217E-03  0.7531E-05  0.1084E-05  0.4219E-03  0.1871E-03  0.9500E-03  0.7264E-04  0.3551E-04  0.3068E-05  0.2710E-02  0.1922E-03
    -13.688  0.1870E-03  0.5299E-05  0.6269E-04  0.1309E-04  0.2927E-04  0.3205E-05  0.2282E-02  0.7884E-04  0.1481E-05  0.9653E-07  0.5079E-04  0.1512E-04  0.1607E-03  0.6781E-05  0.6121E-05  0.2808E-06  0.4756E-03  0.1810E-04
    -13.578  0.2201E-04  0.3195E-06  0.4281E-05  0.5807E-06  0.4438E-05  0.2448E-06  0.3571E-03  0.6158E-05  0.1875E-06  0.5138E-08  0.3790E-05  0.7150E-06  0.1769E-04  0.3996E-06  0.6872E-06  0.1634E-07  0.5384E-04  0.1072E-05
    -13.467  0.1612E-05  0.1169E-07  0.1696E-06  0.1493E-07  0.4160E-06  0.1108E-07  0.3400E-04  0.2857E-06  0.1485E-07  0.1630E-09  0.1724E-06  0.1958E-07  0.1248E-05  0.1452E-07  0.4931E-07  0.5914E-09  0.3875E-05  0.3910E-07
    -13.357  0.7241E-07  0.2549E-09  0.3894E-08  0.2233E-09  0.2328E-07  0.2903E-09  0.1923E-05  0.7673E-08  0.7161E-09  0.3080E-11  0.4773E-08  0.3083E-09  0.5524E-07  0.3176E-09  0.2210E-08  0.1296E-10  0.1737E-06  0.8575E-09
    -13.246  0.1958E-08  0.3257E-11  0.5215E-10  0.1948E-11  0.7607E-09  0.4346E-11  0.6336E-07  0.1174E-09  0.2052E-10  0.3454E-13  0.8092E-10  0.2775E-11  0.1494E-08  0.4094E-11  0.6020E-10  0.1678E-12  0.4732E-08  0.1107E-10
    -13.136  0.3128E-10  0.2402E-13  0.4120E-12  0.9979E-14  0.1429E-10  0.3684E-13  0.1199E-08  0.1014E-11  0.3429E-12  0.2288E-15  0.8449E-12  0.1424E-13  0.2404E-10  0.3055E-13  0.9727E-12  0.1258E-14  0.7643E-10  0.8267E-13
    -13.025  0.2902E-12  0.1010E-15  0.1951E-14  0.2942E-16  0.1525E-12  0.1754E-15  0.1288E-10  0.4897E-14  0.3295E-14  0.8848E-18  0.5421E-14  0.4096E-16  0.2255E-12  0.1301E-15  0.9139E-14  0.5385E-17  0.7178E-12  0.3522E-15
    -12.915  0.1544E-14  0.2123E-18  0.5199E-17  0.2503E-19  0.9176E-15  0.4555E-18  0.7797E-13  0.1308E-16  0.1801E-16  0.1607E-20  0.2095E-16  0.1647E-19  0.1213E-14  0.2811E-18  0.4920E-16  0.1176E-19  0.3863E-14  0.7607E-18
    -12.804  0.4577E-17  0.0000E+00  0.5480E-20  0.0000E+00  0.3083E-17  0.0000E+00  0.2637E-15  0.0000E+00  0.5499E-19  0.0000E+00  0.4032E-19  0.0000E+00  0.3642E-17  0.0000E+00  0.1481E-18  0.0000E+00  0.1161E-16  0.0000E+00
    -12.694  0.2150E-20  0.0000E+00  0.5358E-24  0.0000E+00  0.3300E-20  0.0000E+00  0.2991E-18  0.0000E+00  0.3221E-22  0.0000E+00  0.8377E-24  0.0000E+00  0.1982E-20  0.0000E+00  0.8853E-22  0.0000E+00  0.6345E-20  0.0000E+00
    -12.583  0.0000E+00  0.0000E+00  0.0000E+00  0.0000E+00  0.0000E+00  0.0000E+00  0.0000E+00  0.0000E+00  0.0000E+00  0.0000E+00  0.0000E+00  0.0000E+00  0.0000E+00  0.0000E+00  0.0000E+00  0.0000E+00  0.0000E+00  0.0000E+00
    -12.473  0.0000E+00  0.0000E+00  0.0000E+00  0.0000E+00  0.0000E+00  0.0000E+00  0.0000E+00  0.0000E+00  0.0000E+00  0.0000E+00  0.0000E+00  0.0000E+00  0.0000E+00  0.0000E+00  0.0000E+00  0.0000E+00  0.0000E+00  0.0000E+00
    -12.363  0.0000E+00  0.0000E+00  0.0000E+00  0.0000E+00  0.0000E+00  0.0000E+00  0.0000E+00  0.0000E+00  0.0000E+00  0.0000E+00  0.0000E+00  0.0000E+00  0.0000E+00  0.0000E+00  0.0000E+00  0.0000E+00  0.0000E+00  0.0000E+00
    -12.252  0.0000E+00  0.0000E+00  0.0000E+00  0.0000E+00  0.0000E+00  0.0000E+00  0.0000E+00  0.0000E+00  0.0000E+00  0.0000E+00  0.0000E+00  0.0000E+00  0.0000E+00  0.0000E+00  0.0000E+00  0.0000E+00  0.0000E+00  0.0000E+00
    -12.142  0.0000E+00  0.0000E+00  0.0000E+00  0.0000E+00  0.0000E+00  0.0000E+00  0.0000E+00  0.0000E+00  0.0000E+00  0.0000E+00  0.0000E+00  0.0000E+00  0.0000E+00  0.0000E+00  0.0000E+00  0.0000E+00  0.0000E+00  0.0000E+00