   3   3   1   0
  0.2511886E+02  0.4104300E-09  0.4104300E-09  0.5165500E-09  0.5000000E-15
  1.000000000000000E-004
  CAR 
 unknown system                          
     11.47477933    -34.18392797  301      3.71474260      1.00000000
    -34.184  0.0000E+00  0.0000E+00
    -34.032  0.0000E+00  0.0000E+00
    -33.880  0.0000E+00  0.0000E+00
    -33.727  0.0000E+00  0.0000E+00
    -33.575  0.0000E+00  0.0000E+00
    -33.423  0.0000E+00  0.0000E+00
    -33.271  0.7874E-15  0.1198E-15
    -33.119  0.3097E-11  0.4715E-12
    -32.966  0.4838E-08  0.7367E-09
    -32.814  0.2440E-05  0.3721E-06
    -32.662  0.4009E-03  0.6139E-04
    -32.510  0.2172E-01  0.3367E-02
    -32.358  0.3941E+00  0.6334E-01
    -32.205  0.2439E+01  0.4346E+00
    -32.053  0.5234E+01  0.1231E+01
    -31.901  0.3928E+01  0.1829E+01
    -31.749  0.1028E+01  0.1986E+01
    -31.597  0.9241E-01  0.2000E+01
    -31.444  0.2805E-02  0.2000E+01
    -31.292  0.2826E-04  0.2000E+01
    -31.140  0.9313E-07  0.2000E+01
    -30.988  0.9943E-10  0.2000E+01
    -30.836  0.3409E-13  0.2000E+01
    -30.683  0.0000E+00  0.2000E+01
    -30.531  0.0000E+00  0.2000E+01
    -30.379  0.0000E+00  0.2000E+01
    -30.227  0.0000E+00  0.2000E+01
    -30.075  0.0000E+00  0.2000E+01
    -29.922  0.0000E+00  0.2000E+01
    -29.770  0.0000E+00  0.2000E+01
    -29.618  0.0000E+00  0.2000E+01
    -29.466  0.0000E+00  0.2000E+01
    -29.314  0.0000E+00  0.2000E+01
    -29.161  0.0000E+00  0.2000E+01
    -29.009  0.0000E+00  0.2000E+01
    -28.857  0.0000E+00  0.2000E+01
    -28.705  0.0000E+00  0.2000E+01
    -28.553  0.0000E+00  0.2000E+01
    -28.400  0.0000E+00  0.2000E+01
    -28.248  0.0000E+00  0.2000E+01
    -28.096  0.0000E+00  0.2000E+01
    -27.944  0.0000E+00  0.2000E+01
    -27.792  0.0000E+00  0.2000E+01
    -27.640  0.0000E+00  0.2000E+01
    -27.487  0.0000E+00  0.2000E+01
    -27.335  0.0000E+00  0.2000E+01
    -27.183  0.0000E+00  0.2000E+01
    -27.031  0.0000E+00  0.2000E+01
    -26.879  0.0000E+00  0.2000E+01
    -26.726  0.0000E+00  0.2000E+01
    -26.574  0.0000E+00  0.2000E+01
    -26.422  0.0000E+00  0.2000E+01
    -26.270  0.0000E+00  0.2000E+01
    -26.118  0.0000E+00  0.2000E+01
    -25.965  0.0000E+00  0.2000E+01
    -25.813  0.0000E+00  0.2000E+01
    -25.661  0.0000E+00  0.2000E+01
    -25.509  0.0000E+00  0.2000E+01
    -25.357  0.0000E+00  0.2000E+01
    -25.204  0.0000E+00  0.2000E+01
    -25.052  0.0000E+00  0.2000E+01
    -24.900  0.0000E+00  0.2000E+01
    -24.748  0.0000E+00  0.2000E+01
    -24.596  0.0000E+00  0.2000E+01
    -24.443  0.0000E+00  0.2000E+01
    -24.291  0.0000E+00  0.2000E+01
    -24.139  0.0000E+00  0.2000E+01
    -23.987  0.0000E+00  0.2000E+01
    -23.835  0.0000E+00  0.2000E+01
    -23.682  0.0000E+00  0.2000E+01
    -23.530  0.0000E+00  0.2000E+01
    -23.378  0.0000E+00  0.2000E+01
    -23.226  0.0000E+00  0.2000E+01
    -23.074  0.0000E+00  0.2000E+01
    -22.921  0.0000E+00  0.2000E+01
    -22.769  0.0000E+00  0.2000E+01
    -22.617  0.0000E+00  0.2000E+01
    -22.465  0.0000E+00  0.2000E+01
    -22.313  0.2044E-13  0.2000E+01
    -22.160  0.6777E-10  0.2000E+01
    -22.008  0.7281E-07  0.2000E+01
    -21.856  0.2585E-04  0.2000E+01
    -21.704  0.3107E-02  0.2000E+01
    -21.552  0.1313E+00  0.2020E+01
    -21.399  0.2073E+01  0.2336E+01
    -21.247  0.1324E+02  0.4351E+01
    -21.095  0.3700E+02  0.9982E+01
    -20.943  0.4674E+02  0.1710E+02
    -20.791  0.2585E+02  0.2103E+02
    -20.639  0.5853E+01  0.2192E+02
    -20.486  0.5064E+00  0.2200E+02
    -20.334  0.1583E-01  0.2200E+02
    -20.182  0.1717E-03  0.2200E+02
    -20.030  0.6269E-06  0.2200E+02
    -19.878  0.7560E-09  0.2200E+02
    -19.725  0.2969E-12  0.2200E+02
    -19.573  0.0000E+00  0.2200E+02
    -19.421  0.0000E+00  0.2200E+02
    -19.269  0.0000E+00  0.2200E+02
    -19.117  0.0000E+00  0.2200E+02
    -18.964  0.0000E+00  0.2200E+02
    -18.812  0.0000E+00  0.2200E+02
    -18.660  0.0000E+00  0.2200E+02
    -18.508  0.0000E+00  0.2200E+02
    -18.356  0.0000E+00  0.2200E+02
    -18.203  0.0000E+00  0.2200E+02
    -18.051  0.0000E+00  0.2200E+02
    -17.899  0.0000E+00  0.2200E+02
    -17.747  0.0000E+00  0.2200E+02
    -17.595  0.0000E+00  0.2200E+02
    -17.442  0.0000E+00  0.2200E+02
    -17.290  0.0000E+00  0.2200E+02
    -17.138  0.0000E+00  0.2200E+02
    -16.986  0.0000E+00  0.2200E+02
    -16.834  0.0000E+00  0.2200E+02
    -16.681  0.0000E+00  0.2200E+02
    -16.529  0.0000E+00  0.2200E+02
    -16.377  0.0000E+00  0.2200E+02
    -16.225  0.0000E+00  0.2200E+02
    -16.073  0.0000E+00  0.2200E+02
    -15.920  0.0000E+00  0.2200E+02
    -15.768  0.0000E+00  0.2200E+02
    -15.616  0.0000E+00  0.2200E+02
    -15.464  0.2331E-13  0.2200E+02
    -15.312  0.6674E-10  0.2200E+02
    -15.159  0.6346E-07  0.2200E+02
    -15.007  0.2033E-04  0.2200E+02
    -14.855  0.2229E-02  0.2200E+02
    -14.703  0.8543E-01  0.2201E+02
    -14.551  0.1180E+01  0.2219E+02
    -14.398  0.6159E+01  0.2313E+02
    -14.246  0.1306E+02  0.2512E+02
    -14.094  0.1232E+02  0.2699E+02
    -13.942  0.5450E+01  0.2782E+02
    -13.790  0.1076E+01  0.2799E+02
    -13.638  0.8573E-01  0.2800E+02
    -13.485  0.2528E-02  0.2800E+02
    -13.333  0.2618E-04  0.2800E+02
    -13.181  0.9230E-07  0.2800E+02
    -13.029  0.1086E-09  0.2800E+02
    -12.877  0.4196E-13  0.2800E+02
    -12.724  0.0000E+00  0.2800E+02
    -12.572  0.0000E+00  0.2800E+02
    -12.420  0.0000E+00  0.2800E+02
    -12.268  0.0000E+00  0.2800E+02
    -12.116  0.0000E+00  0.2800E+02
    -11.963  0.0000E+00  0.2800E+02
    -11.811  0.0000E+00  0.2800E+02
    -11.659  0.0000E+00  0.2800E+02
    -11.507  0.0000E+00  0.2800E+02
    -11.355  0.0000E+00  0.2800E+02
    -11.202  0.0000E+00  0.2800E+02
    -11.050  0.0000E+00  0.2800E+02
    -10.898  0.0000E+00  0.2800E+02
    -10.746  0.0000E+00  0.2800E+02
    -10.594  0.0000E+00  0.2800E+02
    -10.441  0.0000E+00  0.2800E+02
    -10.289  0.0000E+00  0.2800E+02
    -10.137  0.0000E+00  0.2800E+02
     -9.985  0.0000E+00  0.2800E+02
     -9.833  0.0000E+00  0.2800E+02
     -9.680  0.0000E+00  0.2800E+02
     -9.528  0.0000E+00  0.2800E+02
     -9.376  0.0000E+00  0.2800E+02
     -9.224  0.1595E-17  0.2800E+02
     -9.072  0.9112E-14  0.2800E+02
     -8.919  0.1403E-10  0.2800E+02
     -8.767  0.7386E-08  0.2800E+02
     -8.615  0.1364E-05  0.2800E+02
     -8.463  0.9098E-04  0.2800E+02
     -8.311  0.2284E-02  0.2800E+02
     -8.158  0.2310E-01  0.2800E+02
     -8.006  0.1060E+00  0.2802E+02
     -7.854  0.2670E+00  0.2806E+02
     -7.702  0.4641E+00  0.2813E+02
     -7.550  0.6350E+00  0.2823E+02
     -7.397  0.7209E+00  0.2834E+02
     -7.245  0.7579E+00  0.2845E+02
     -7.093  0.7564E+00  0.2857E+02
     -6.941  0.7858E+00  0.2869E+02
     -6.789  0.8132E+00  0.2881E+02
     -6.637  0.7890E+00  0.2893E+02
     -6.484  0.9023E+00  0.2907E+02
     -6.332  0.9260E+00  0.2921E+02
     -6.180  0.9894E+00  0.2936E+02
     -6.028  0.1218E+01  0.2955E+02
     -5.876  0.1027E+01  0.2970E+02
     -5.723  0.7602E+00  0.2982E+02
     -5.571  0.5706E+00  0.2990E+02
     -5.419  0.3115E+00  0.2995E+02
     -5.267  0.1936E+00  0.2998E+02
     -5.115  0.1151E+00  0.3000E+02
     -4.962  0.1103E+00  0.3002E+02
     -4.810  0.1954E+00  0.3005E+02
     -4.658  0.3439E+00  0.3010E+02
     -4.506  0.7093E+00  0.3021E+02
     -4.354  0.9114E+00  0.3034E+02
     -4.201  0.9180E+00  0.3048E+02
     -4.049  0.9862E+00  0.3063E+02
     -3.897  0.8239E+00  0.3076E+02
     -3.745  0.5905E+00  0.3085E+02
     -3.593  0.6179E+00  0.3094E+02
     -3.440  0.6796E+00  0.3105E+02
     -3.288  0.5270E+00  0.3113E+02
     -3.136  0.4369E+00  0.3119E+02
     -2.984  0.5354E+00  0.3128E+02
     -2.832  0.5697E+00  0.3136E+02
     -2.679  0.4697E+00  0.3143E+02
     -2.527  0.5622E+00  0.3152E+02
     -2.375  0.7528E+00  0.3163E+02
     -2.223  0.6701E+00  0.3174E+02
     -2.071  0.4903E+00  0.3181E+02
     -1.918  0.3823E+00  0.3187E+02
     -1.766  0.2628E+00  0.3191E+02
     -1.614  0.1978E+00  0.3194E+02
     -1.462  0.1776E+00  0.3197E+02
     -1.310  0.1254E+00  0.3198E+02
     -1.157  0.7527E-01  0.3200E+02
     -1.005  0.8923E-01  0.3201E+02
     -0.853  0.1577E+00  0.3203E+02
     -0.701  0.2673E+00  0.3207E+02
     -0.549  0.4258E+00  0.3214E+02
     -0.396  0.6664E+00  0.3224E+02
     -0.244  0.1075E+01  0.3240E+02
     -0.092  0.1550E+01  0.3264E+02
      0.060  0.1769E+01  0.3291E+02
      0.212  0.1845E+01  0.3319E+02
      0.364  0.1861E+01  0.3347E+02
      0.517  0.1758E+01  0.3374E+02
      0.669  0.1862E+01  0.3402E+02
      0.821  0.2360E+01  0.3438E+02
      0.973  0.2668E+01  0.3479E+02
      1.125  0.2292E+01  0.3514E+02
      1.278  0.1705E+01  0.3540E+02
      1.430  0.1336E+01  0.3560E+02
      1.582  0.1352E+01  0.3581E+02
      1.734  0.1592E+01  0.3605E+02
      1.886  0.1484E+01  0.3628E+02
      2.039  0.1390E+01  0.3649E+02
      2.191  0.1505E+01  0.3672E+02
      2.343  0.1505E+01  0.3694E+02
      2.495  0.1484E+01  0.3717E+02
      2.647  0.1385E+01  0.3738E+02
      2.800  0.1107E+01  0.3755E+02
      2.952  0.8568E+00  0.3768E+02
      3.104  0.6406E+00  0.3778E+02
      3.256  0.4561E+00  0.3785E+02
      3.408  0.3591E+00  0.3790E+02
      3.561  0.3129E+00  0.3795E+02
      3.713  0.3258E+00  0.3800E+02
      3.865  0.4093E+00  0.3806E+02
      4.017  0.5354E+00  0.3814E+02
      4.169  0.7831E+00  0.3826E+02
      4.322  0.1099E+01  0.3843E+02
      4.474  0.1365E+01  0.3864E+02
      4.626  0.1675E+01  0.3889E+02
      4.778  0.1930E+01  0.3919E+02
      4.930  0.2118E+01  0.3951E+02
      5.083  0.2310E+01  0.3986E+02
      5.235  0.2419E+01  0.4023E+02
      5.387  0.2467E+01  0.4060E+02
      5.539  0.2352E+01  0.4096E+02
      5.691  0.2493E+01  0.4134E+02
      5.844  0.3037E+01  0.4180E+02
      5.996  0.3636E+01  0.4236E+02
      6.148  0.3895E+01  0.4295E+02
      6.300  0.3837E+01  0.4353E+02
      6.452  0.3962E+01  0.4414E+02
      6.605  0.3816E+01  0.4472E+02
      6.757  0.3063E+01  0.4518E+02
      6.909  0.2404E+01  0.4555E+02
      7.061  0.2068E+01  0.4586E+02
      7.213  0.1829E+01  0.4614E+02
      7.365  0.1614E+01  0.4639E+02
      7.518  0.1366E+01  0.4660E+02
      7.670  0.1159E+01  0.4677E+02
      7.822  0.1055E+01  0.4693E+02
      7.974  0.9055E+00  0.4707E+02
      8.126  0.7414E+00  0.4718E+02
      8.279  0.7942E+00  0.4730E+02
      8.431  0.9015E+00  0.4744E+02
      8.583  0.8976E+00  0.4758E+02
      8.735  0.7099E+00  0.4769E+02
      8.887  0.5809E+00  0.4777E+02
      9.040  0.6396E+00  0.4787E+02
      9.192  0.5070E+00  0.4795E+02
      9.344  0.2305E+00  0.4798E+02
      9.496  0.7866E-01  0.4800E+02
      9.648  0.2166E-01  0.4800E+02
      9.801  0.3030E-02  0.4800E+02
      9.953  0.1622E-03  0.4800E+02
     10.105  0.3042E-05  0.4800E+02
     10.257  0.1928E-07  0.4800E+02
     10.409  0.4043E-10  0.4800E+02
     10.562  0.2767E-13  0.4800E+02
     10.714  0.6380E-17  0.4800E+02
     10.866  0.0000E+00  0.4800E+02
     11.018  0.0000E+00  0.4800E+02
     11.170  0.0000E+00  0.4800E+02
     11.323  0.0000E+00  0.4800E+02
     11.475  0.0000E+00  0.4800E+02
     11.47477933    -34.18392797  301      3.71474260      1.00000000
    -34.184  0.0000E+00  0.0000E+00  0.0000E+00  0.0000E+00  0.0000E+00  0.0000E+00  0.0000E+00  0.0000E+00  0.0000E+00
    -34.032  0.0000E+00  0.0000E+00  0.0000E+00  0.0000E+00  0.0000E+00  0.0000E+00  0.0000E+00  0.0000E+00  0.0000E+00
    -33.880  0.0000E+00  0.0000E+00  0.0000E+00  0.0000E+00  0.0000E+00  0.0000E+00  0.0000E+00  0.0000E+00  0.0000E+00
    -33.727  0.0000E+00  0.0000E+00  0.0000E+00  0.0000E+00  0.0000E+00  0.0000E+00  0.0000E+00  0.0000E+00  0.0000E+00
    -33.575  0.0000E+00  0.0000E+00  0.0000E+00  0.0000E+00  0.0000E+00  0.0000E+00  0.0000E+00  0.0000E+00  0.0000E+00
    -33.423  0.0000E+00  0.0000E+00  0.0000E+00  0.0000E+00  0.0000E+00  0.0000E+00  0.0000E+00  0.0000E+00  0.0000E+00
    -33.271  0.1205E-19  0.2754E-20  0.6961E-20  0.4801E-20  0.1644E-20  0.2931E-20  0.3253E-21  0.5173E-20  0.9516E-21
    -33.119  0.5279E-16  0.1003E-16  0.3070E-16  0.1764E-16  0.6029E-17  0.1064E-16  0.1417E-17  0.1898E-16  0.3456E-17
    -32.966  0.7981E-13  0.1602E-13  0.4645E-13  0.2817E-13  0.9632E-14  0.1700E-13  0.2143E-14  0.3033E-13  0.5522E-14
    -32.814  0.3897E-10  0.8253E-11  0.2269E-10  0.1451E-10  0.4964E-11  0.8763E-11  0.1047E-11  0.1563E-10  0.2846E-11
    -32.662  0.6197E-08  0.1384E-08  0.3610E-08  0.2432E-08  0.8324E-09  0.1470E-08  0.1665E-09  0.2621E-08  0.4774E-09
    -32.510  0.3250E-06  0.7640E-07  0.1894E-06  0.1343E-06  0.4597E-07  0.8123E-07  0.8735E-08  0.1447E-06  0.2638E-07
    -32.358  0.5711E-05  0.1411E-05  0.3331E-05  0.2480E-05  0.8493E-06  0.1502E-05  0.1535E-06  0.2674E-05  0.4876E-06
    -32.205  0.3424E-04  0.8885E-05  0.1998E-04  0.1561E-04  0.5346E-05  0.9459E-05  0.9208E-06  0.1683E-04  0.3071E-05
    -32.053  0.7121E-04  0.1938E-04  0.4157E-04  0.3402E-04  0.1166E-04  0.2064E-04  0.1916E-05  0.3671E-04  0.6700E-05
    -31.901  0.5180E-04  0.1477E-04  0.3026E-04  0.2591E-04  0.8882E-05  0.1574E-04  0.1394E-05  0.2797E-04  0.5109E-05
    -31.749  0.1313E-04  0.3921E-05  0.7672E-05  0.6876E-05  0.2357E-05  0.4182E-05  0.3534E-06  0.7424E-05  0.1357E-05
    -31.597  0.1143E-05  0.3577E-06  0.6685E-06  0.6268E-06  0.2150E-06  0.3817E-06  0.3079E-07  0.6771E-06  0.1239E-06
    -31.444  0.3360E-07  0.1101E-07  0.1966E-07  0.1928E-07  0.6614E-08  0.1176E-07  0.9054E-09  0.2083E-07  0.3815E-08
    -31.292  0.3276E-09  0.1125E-09  0.1918E-09  0.1967E-09  0.6749E-10  0.1201E-09  0.8830E-11  0.2126E-09  0.3896E-10
    -31.140  0.1045E-11  0.3755E-12  0.6120E-12  0.6562E-12  0.2252E-12  0.4014E-12  0.2818E-13  0.7095E-12  0.1302E-12
    -30.988  0.1080E-14  0.4060E-15  0.6328E-15  0.7087E-15  0.2433E-15  0.4342E-15  0.2913E-16  0.7665E-15  0.1408E-15
    -30.836  0.3583E-18  0.1410E-18  0.2100E-18  0.2455E-18  0.8431E-19  0.1510E-18  0.9670E-20  0.2658E-18  0.4891E-19
    -30.683  0.0000E+00  0.0000E+00  0.0000E+00  0.0000E+00  0.0000E+00  0.0000E+00  0.0000E+00  0.0000E+00  0.0000E+00
    -30.531  0.0000E+00  0.0000E+00  0.0000E+00  0.0000E+00  0.0000E+00  0.0000E+00  0.0000E+00  0.0000E+00  0.0000E+00
    -30.379  0.0000E+00  0.0000E+00  0.0000E+00  0.0000E+00  0.0000E+00  0.0000E+00  0.0000E+00  0.0000E+00  0.0000E+00
    -30.227  0.0000E+00  0.0000E+00  0.0000E+00  0.0000E+00  0.0000E+00  0.0000E+00  0.0000E+00  0.0000E+00  0.0000E+00
    -30.075  0.0000E+00  0.0000E+00  0.0000E+00  0.0000E+00  0.0000E+00  0.0000E+00  0.0000E+00  0.0000E+00  0.0000E+00
    -29.922  0.0000E+00  0.0000E+00  0.0000E+00  0.0000E+00  0.0000E+00  0.0000E+00  0.0000E+00  0.0000E+00  0.0000E+00
    -29.770  0.0000E+00  0.0000E+00  0.0000E+00  0.0000E+00  0.0000E+00  0.0000E+00  0.0000E+00  0.0000E+00  0.0000E+00
    -29.618  0.0000E+00  0.0000E+00  0.0000E+00  0.0000E+00  0.0000E+00  0.0000E+00  0.0000E+00  0.0000E+00  0.0000E+00
    -29.466  0.0000E+00  0.0000E+00  0.0000E+00  0.0000E+00  0.0000E+00  0.0000E+00  0.0000E+00  0.0000E+00  0.0000E+00
    -29.314  0.0000E+00  0.0000E+00  0.0000E+00  0.0000E+00  0.0000E+00  0.0000E+00  0.0000E+00  0.0000E+00  0.0000E+00
    -29.161  0.0000E+00  0.0000E+00  0.0000E+00  0.0000E+00  0.0000E+00  0.0000E+00  0.0000E+00  0.0000E+00  0.0000E+00
    -29.009  0.0000E+00  0.0000E+00  0.0000E+00  0.0000E+00  0.0000E+00  0.0000E+00  0.0000E+00  0.0000E+00  0.0000E+00
    -28.857  0.0000E+00  0.0000E+00  0.0000E+00  0.0000E+00  0.0000E+00  0.0000E+00  0.0000E+00  0.0000E+00  0.0000E+00
    -28.705  0.0000E+00  0.0000E+00  0.0000E+00  0.0000E+00  0.0000E+00  0.0000E+00  0.0000E+00  0.0000E+00  0.0000E+00
    -28.553  0.0000E+00  0.0000E+00  0.0000E+00  0.0000E+00  0.0000E+00  0.0000E+00  0.0000E+00  0.0000E+00  0.0000E+00
    -28.400  0.0000E+00  0.0000E+00  0.0000E+00  0.0000E+00  0.0000E+00  0.0000E+00  0.0000E+00  0.0000E+00  0.0000E+00
    -28.248  0.0000E+00  0.0000E+00  0.0000E+00  0.0000E+00  0.0000E+00  0.0000E+00  0.0000E+00  0.0000E+00  0.0000E+00
    -28.096  0.0000E+00  0.0000E+00  0.0000E+00  0.0000E+00  0.0000E+00  0.0000E+00  0.0000E+00  0.0000E+00  0.0000E+00
    -27.944  0.0000E+00  0.0000E+00  0.0000E+00  0.0000E+00  0.0000E+00  0.0000E+00  0.0000E+00  0.0000E+00  0.0000E+00
    -27.792  0.0000E+00  0.0000E+00  0.0000E+00  0.0000E+00  0.0000E+00  0.0000E+00  0.0000E+00  0.0000E+00  0.0000E+00
    -27.640  0.0000E+00  0.0000E+00  0.0000E+00  0.0000E+00  0.0000E+00  0.0000E+00  0.0000E+00  0.0000E+00  0.0000E+00
    -27.487  0.0000E+00  0.0000E+00  0.0000E+00  0.0000E+00  0.0000E+00  0.0000E+00  0.0000E+00  0.0000E+00  0.0000E+00
    -27.335  0.0000E+00  0.0000E+00  0.0000E+00  0.0000E+00  0.0000E+00  0.0000E+00  0.0000E+00  0.0000E+00  0.0000E+00
    -27.183  0.0000E+00  0.0000E+00  0.0000E+00  0.0000E+00  0.0000E+00  0.0000E+00  0.0000E+00  0.0000E+00  0.0000E+00
    -27.031  0.0000E+00  0.0000E+00  0.0000E+00  0.0000E+00  0.0000E+00  0.0000E+00  0.0000E+00  0.0000E+00  0.0000E+00
    -26.879  0.0000E+00  0.0000E+00  0.0000E+00  0.0000E+00  0.0000E+00  0.0000E+00  0.0000E+00  0.0000E+00  0.0000E+00
    -26.726  0.0000E+00  0.0000E+00  0.0000E+00  0.0000E+00  0.0000E+00  0.0000E+00  0.0000E+00  0.0000E+00  0.0000E+00
    -26.574  0.0000E+00  0.0000E+00  0.0000E+00  0.0000E+00  0.0000E+00  0.0000E+00  0.0000E+00  0.0000E+00  0.0000E+00
    -26.422  0.0000E+00  0.0000E+00  0.0000E+00  0.0000E+00  0.0000E+00  0.0000E+00  0.0000E+00  0.0000E+00  0.0000E+00
    -26.270  0.0000E+00  0.0000E+00  0.0000E+00  0.0000E+00  0.0000E+00  0.0000E+00  0.0000E+00  0.0000E+00  0.0000E+00
    -26.118  0.0000E+00  0.0000E+00  0.0000E+00  0.0000E+00  0.0000E+00  0.0000E+00  0.0000E+00  0.0000E+00  0.0000E+00
    -25.965  0.0000E+00  0.0000E+00  0.0000E+00  0.0000E+00  0.0000E+00  0.0000E+00  0.0000E+00  0.0000E+00  0.0000E+00
    -25.813  0.0000E+00  0.0000E+00  0.0000E+00  0.0000E+00  0.0000E+00  0.0000E+00  0.0000E+00  0.0000E+00  0.0000E+00
    -25.661  0.0000E+00  0.0000E+00  0.0000E+00  0.0000E+00  0.0000E+00  0.0000E+00  0.0000E+00  0.0000E+00  0.0000E+00
    -25.509  0.0000E+00  0.0000E+00  0.0000E+00  0.0000E+00  0.0000E+00  0.0000E+00  0.0000E+00  0.0000E+00  0.0000E+00
    -25.357  0.0000E+00  0.0000E+00  0.0000E+00  0.0000E+00  0.0000E+00  0.0000E+00  0.0000E+00  0.0000E+00  0.0000E+00
    -25.204  0.0000E+00  0.0000E+00  0.0000E+00  0.0000E+00  0.0000E+00  0.0000E+00  0.0000E+00  0.0000E+00  0.0000E+00
    -25.052  0.0000E+00  0.0000E+00  0.0000E+00  0.0000E+00  0.0000E+00  0.0000E+00  0.0000E+00  0.0000E+00  0.0000E+00
    -24.900  0.0000E+00  0.0000E+00  0.0000E+00  0.0000E+00  0.0000E+00  0.0000E+00  0.0000E+00  0.0000E+00  0.0000E+00
    -24.748  0.0000E+00  0.0000E+00  0.0000E+00  0.0000E+00  0.0000E+00  0.0000E+00  0.0000E+00  0.0000E+00  0.0000E+00
    -24.596  0.0000E+00  0.0000E+00  0.0000E+00  0.0000E+00  0.0000E+00  0.0000E+00  0.0000E+00  0.0000E+00  0.0000E+00
    -24.443  0.0000E+00  0.0000E+00  0.0000E+00  0.0000E+00  0.0000E+00  0.0000E+00  0.0000E+00  0.0000E+00  0.0000E+00
    -24.291  0.0000E+00  0.0000E+00  0.0000E+00  0.0000E+00  0.0000E+00  0.0000E+00  0.0000E+00  0.0000E+00  0.0000E+00
    -24.139  0.0000E+00  0.0000E+00  0.0000E+00  0.0000E+00  0.0000E+00  0.0000E+00  0.0000E+00  0.0000E+00  0.0000E+00
    -23.987  0.0000E+00  0.0000E+00  0.0000E+00  0.0000E+00  0.0000E+00  0.0000E+00  0.0000E+00  0.0000E+00  0.0000E+00
    -23.835  0.0000E+00  0.0000E+00  0.0000E+00  0.0000E+00  0.0000E+00  0.0000E+00  0.0000E+00  0.0000E+00  0.0000E+00
    -23.682  0.0000E+00  0.0000E+00  0.0000E+00  0.0000E+00  0.0000E+00  0.0000E+00  0.0000E+00  0.0000E+00  0.0000E+00
    -23.530  0.0000E+00  0.0000E+00  0.0000E+00  0.0000E+00  0.0000E+00  0.0000E+00  0.0000E+00  0.0000E+00  0.0000E+00
    -23.378  0.0000E+00  0.0000E+00  0.0000E+00  0.0000E+00  0.0000E+00  0.0000E+00  0.0000E+00  0.0000E+00  0.0000E+00
    -23.226  0.0000E+00  0.0000E+00  0.0000E+00  0.0000E+00  0.0000E+00  0.0000E+00  0.0000E+00  0.0000E+00  0.0000E+00
    -23.074  0.0000E+00  0.0000E+00  0.0000E+00  0.0000E+00  0.0000E+00  0.0000E+00  0.0000E+00  0.0000E+00  0.0000E+00
    -22.921  0.0000E+00  0.0000E+00  0.0000E+00  0.0000E+00  0.0000E+00  0.0000E+00  0.0000E+00  0.0000E+00  0.0000E+00
    -22.769  0.0000E+00  0.0000E+00  0.0000E+00  0.0000E+00  0.0000E+00  0.0000E+00  0.0000E+00  0.0000E+00  0.0000E+00
    -22.617  0.0000E+00  0.0000E+00  0.0000E+00  0.0000E+00  0.0000E+00  0.0000E+00  0.0000E+00  0.0000E+00  0.0000E+00
    -22.465  0.0000E+00  0.0000E+00  0.0000E+00  0.0000E+00  0.0000E+00  0.0000E+00  0.0000E+00  0.0000E+00  0.0000E+00
    -22.313  0.3052E-18  0.1803E-17  0.3755E-19  0.1188E-17  0.3262E-14  0.1425E-14  0.7407E-16  0.1023E-14  0.4353E-14
    -22.160  0.1279E-14  0.5875E-14  0.1554E-15  0.3926E-14  0.1080E-10  0.4768E-11  0.3676E-12  0.3539E-11  0.1415E-10
    -22.008  0.1722E-11  0.6169E-11  0.2088E-12  0.4186E-11  0.1160E-07  0.5157E-08  0.5480E-09  0.3961E-08  0.1485E-07
    -21.856  0.7672E-09  0.2106E-08  0.9437E-10  0.1456E-08  0.4109E-05  0.1848E-05  0.2824E-06  0.1485E-05  0.5099E-05
    -21.704  0.1151E-06  0.2367E-06  0.1469E-07  0.1675E-06  0.4884E-03  0.2260E-03  0.5167E-04  0.1922E-03  0.5830E-03
    -21.552  0.5958E-05  0.8914E-05  0.8145E-06  0.6500E-05  0.2005E-01  0.9881E-02  0.3453E-02  0.8977E-02  0.2280E-01
    -21.399  0.1101E-03  0.1159E-03  0.1674E-04  0.8778E-04  0.2969E+00  0.1657E+00  0.8684E-01  0.1601E+00  0.3194E+00
    -21.247  0.7572E-03  0.5488E-03  0.1321E-03  0.4358E-03  0.1693E+01  0.1155E+01  0.8457E+00  0.1159E+01  0.1722E+01
    -21.095  0.2028E-02  0.1061E-02  0.4087E-03  0.8833E-03  0.4044E+01  0.3542E+01  0.3264E+01  0.3573E+01  0.3963E+01
    -20.943  0.2199E-02  0.1022E-02  0.4949E-03  0.8628E-03  0.4361E+01  0.4785E+01  0.5031E+01  0.4780E+01  0.4287E+01
    -20.791  0.9856E-03  0.5448E-03  0.2306E-03  0.4455E-03  0.2152E+01  0.2731E+01  0.3062E+01  0.2711E+01  0.2208E+01
    -20.639  0.1811E-03  0.1374E-03  0.4033E-04  0.1081E-03  0.4586E+00  0.6225E+00  0.7148E+00  0.6192E+00  0.4986E+00
    -20.486  0.1317E-04  0.1356E-04  0.2575E-05  0.1040E-04  0.3881E-01  0.5364E-01  0.6155E-01  0.5361E-01  0.4456E-01
    -20.334  0.3601E-06  0.4747E-06  0.5857E-07  0.3579E-06  0.1215E-02  0.1666E-02  0.1880E-02  0.1668E-02  0.1458E-02
    -20.182  0.3524E-08  0.5627E-08  0.4655E-09  0.4192E-08  0.1335E-04  0.1795E-04  0.1972E-04  0.1792E-04  0.1657E-04
    -20.030  0.1187E-10  0.2205E-10  0.1274E-11  0.1627E-10  0.4978E-07  0.6531E-07  0.6921E-07  0.6462E-07  0.6338E-07
    -19.878  0.1338E-13  0.2814E-13  0.1184E-14  0.2058E-13  0.6150E-10  0.7861E-10  0.7992E-10  0.7681E-10  0.7978E-10
    -19.725  0.4928E-17  0.1158E-16  0.3671E-18  0.8403E-17  0.2479E-13  0.3087E-13  0.2997E-13  0.2970E-13  0.3258E-13
    -19.573  0.0000E+00  0.0000E+00  0.0000E+00  0.0000E+00  0.0000E+00  0.0000E+00  0.0000E+00  0.0000E+00  0.0000E+00
    -19.421  0.0000E+00  0.0000E+00  0.0000E+00  0.0000E+00  0.0000E+00  0.0000E+00  0.0000E+00  0.0000E+00  0.0000E+00
    -19.269  0.0000E+00  0.0000E+00  0.0000E+00  0.0000E+00  0.0000E+00  0.0000E+00  0.0000E+00  0.0000E+00  0.0000E+00
    -19.117  0.0000E+00  0.0000E+00  0.0000E+00  0.0000E+00  0.0000E+00  0.0000E+00  0.0000E+00  0.0000E+00  0.0000E+00
    -18.964  0.0000E+00  0.0000E+00  0.0000E+00  0.0000E+00  0.0000E+00  0.0000E+00  0.0000E+00  0.0000E+00  0.0000E+00
    -18.812  0.0000E+00  0.0000E+00  0.0000E+00  0.0000E+00  0.0000E+00  0.0000E+00  0.0000E+00  0.0000E+00  0.0000E+00
    -18.660  0.0000E+00  0.0000E+00  0.0000E+00  0.0000E+00  0.0000E+00  0.0000E+00  0.0000E+00  0.0000E+00  0.0000E+00
    -18.508  0.0000E+00  0.0000E+00  0.0000E+00  0.0000E+00  0.0000E+00  0.0000E+00  0.0000E+00  0.0000E+00  0.0000E+00
    -18.356  0.0000E+00  0.0000E+00  0.0000E+00  0.0000E+00  0.0000E+00  0.0000E+00  0.0000E+00  0.0000E+00  0.0000E+00
    -18.203  0.0000E+00  0.0000E+00  0.0000E+00  0.0000E+00  0.0000E+00  0.0000E+00  0.0000E+00  0.0000E+00  0.0000E+00
    -18.051  0.0000E+00  0.0000E+00  0.0000E+00  0.0000E+00  0.0000E+00  0.0000E+00  0.0000E+00  0.0000E+00  0.0000E+00
    -17.899  0.0000E+00  0.0000E+00  0.0000E+00  0.0000E+00  0.0000E+00  0.0000E+00  0.0000E+00  0.0000E+00  0.0000E+00
    -17.747  0.0000E+00  0.0000E+00  0.0000E+00  0.0000E+00  0.0000E+00  0.0000E+00  0.0000E+00  0.0000E+00  0.0000E+00
    -17.595  0.0000E+00  0.0000E+00  0.0000E+00  0.0000E+00  0.0000E+00  0.0000E+00  0.0000E+00  0.0000E+00  0.0000E+00
    -17.442  0.0000E+00  0.0000E+00  0.0000E+00  0.0000E+00  0.0000E+00  0.0000E+00  0.0000E+00  0.0000E+00  0.0000E+00
    -17.290  0.0000E+00  0.0000E+00  0.0000E+00  0.0000E+00  0.0000E+00  0.0000E+00  0.0000E+00  0.0000E+00  0.0000E+00
    -17.138  0.0000E+00  0.0000E+00  0.0000E+00  0.0000E+00  0.0000E+00  0.0000E+00  0.0000E+00  0.0000E+00  0.0000E+00
    -16.986  0.0000E+00  0.0000E+00  0.0000E+00  0.0000E+00  0.0000E+00  0.0000E+00  0.0000E+00  0.0000E+00  0.0000E+00
    -16.834  0.0000E+00  0.0000E+00  0.0000E+00  0.0000E+00  0.0000E+00  0.0000E+00  0.0000E+00  0.0000E+00  0.0000E+00
    -16.681  0.0000E+00  0.0000E+00  0.0000E+00  0.0000E+00  0.0000E+00  0.0000E+00  0.0000E+00  0.0000E+00  0.0000E+00
    -16.529  0.0000E+00  0.0000E+00  0.0000E+00  0.0000E+00  0.0000E+00  0.0000E+00  0.0000E+00  0.0000E+00  0.0000E+00
    -16.377  0.0000E+00  0.0000E+00  0.0000E+00  0.0000E+00  0.0000E+00  0.0000E+00  0.0000E+00  0.0000E+00  0.0000E+00
    -16.225  0.0000E+00  0.0000E+00  0.0000E+00  0.0000E+00  0.0000E+00  0.0000E+00  0.0000E+00  0.0000E+00  0.0000E+00
    -16.073  0.0000E+00  0.0000E+00  0.0000E+00  0.0000E+00  0.0000E+00  0.0000E+00  0.0000E+00  0.0000E+00  0.0000E+00
    -15.920  0.0000E+00  0.0000E+00  0.0000E+00  0.0000E+00  0.0000E+00  0.0000E+00  0.0000E+00  0.0000E+00  0.0000E+00
    -15.768  0.0000E+00  0.0000E+00  0.0000E+00  0.0000E+00  0.0000E+00  0.0000E+00  0.0000E+00  0.0000E+00  0.0000E+00
    -15.616  0.0000E+00  0.0000E+00  0.0000E+00  0.0000E+00  0.0000E+00  0.0000E+00  0.0000E+00  0.0000E+00  0.0000E+00
    -15.464  0.6251E-16  0.1221E-17  0.6111E-17  0.2083E-17  0.4337E-18  0.3816E-18  0.6153E-18  0.7562E-18  0.2041E-18
    -15.312  0.1651E-12  0.3789E-14  0.1799E-13  0.6464E-14  0.1375E-14  0.1290E-14  0.1773E-14  0.2490E-14  0.6496E-15
    -15.159  0.1438E-09  0.3930E-11  0.1741E-10  0.6708E-11  0.1454E-11  0.1443E-11  0.1675E-11  0.2725E-11  0.6945E-12
    -15.007  0.4176E-07  0.1381E-08  0.5600E-08  0.2360E-08  0.5204E-09  0.5478E-09  0.5245E-09  0.1011E-08  0.2533E-09
    -14.855  0.4100E-05  0.1664E-06  0.6066E-06  0.2850E-06  0.6384E-07  0.7151E-07  0.5524E-07  0.1287E-06  0.3185E-07
    -14.703  0.1384E-03  0.7009E-05  0.2253E-04  0.1197E-04  0.2722E-05  0.3280E-05  0.1995E-05  0.5711E-05  0.1402E-05
    -14.551  0.1643E-02  0.1060E-03  0.2937E-03  0.1780E-03  0.4111E-04  0.5472E-04  0.2535E-04  0.9029E-04  0.2208E-04
    -14.398  0.7039E-02  0.6028E-03  0.1383E-02  0.9594E-03  0.2262E-03  0.3508E-03  0.1172E-03  0.5245E-03  0.1300E-03
    -14.246  0.1123E-01  0.1383E-02  0.2435E-02  0.1942E-02  0.4755E-03  0.9305E-03  0.2055E-03  0.1174E-02  0.3078E-03
    -14.094  0.6923E-02  0.1387E-02  0.1668E-02  0.1558E-02  0.4128E-03  0.1083E-02  0.1435E-03  0.1080E-02  0.3241E-03
    -13.942  0.1739E-02  0.6309E-03  0.4657E-03  0.5349E-03  0.1632E-03  0.5523E-03  0.4198E-04  0.4356E-03  0.1604E-03
    -13.790  0.1884E-03  0.1238E-03  0.5513E-04  0.8303E-04  0.3033E-04  0.1159E-03  0.5282E-05  0.7783E-04  0.3518E-04
    -13.638  0.8971E-05  0.9573E-05  0.2770E-05  0.5654E-05  0.2433E-05  0.9290E-05  0.2792E-06  0.5784E-05  0.3061E-05
    -13.485  0.1783E-06  0.2713E-06  0.5628E-07  0.1534E-06  0.7487E-07  0.2689E-06  0.5832E-08  0.1640E-06  0.9700E-07
    -13.333  0.1364E-08  0.2690E-08  0.4329E-09  0.1519E-08  0.8161E-09  0.2706E-08  0.4518E-10  0.1662E-08  0.1064E-08
    -13.181  0.3765E-11  0.9076E-11  0.1194E-11  0.5212E-11  0.3019E-11  0.9241E-11  0.1241E-12  0.5776E-11  0.3929E-11
    -13.029  0.3603E-14  0.1024E-13  0.1140E-14  0.6012E-14  0.3701E-14  0.1054E-13  0.1171E-15  0.6725E-14  0.4798E-14
    -12.877  0.1136E-17  0.3812E-17  0.3601E-18  0.2287E-17  0.1481E-17  0.3961E-17  0.3630E-19  0.2577E-17  0.1912E-17
    -12.724  0.0000E+00  0.0000E+00  0.0000E+00  0.0000E+00  0.0000E+00  0.0000E+00  0.0000E+00  0.0000E+00  0.0000E+00
    -12.572  0.0000E+00  0.0000E+00  0.0000E+00  0.0000E+00  0.0000E+00  0.0000E+00  0.0000E+00  0.0000E+00  0.0000E+00
    -12.420  0.0000E+00  0.0000E+00  0.0000E+00  0.0000E+00  0.0000E+00  0.0000E+00  0.0000E+00  0.0000E+00  0.0000E+00
    -12.268  0.0000E+00  0.0000E+00  0.0000E+00  0.0000E+00  0.0000E+00  0.0000E+00  0.0000E+00  0.0000E+00  0.0000E+00
    -12.116  0.0000E+00  0.0000E+00  0.0000E+00  0.0000E+00  0.0000E+00  0.0000E+00  0.0000E+00  0.0000E+00  0.0000E+00
    -11.963  0.0000E+00  0.0000E+00  0.0000E+00  0.0000E+00  0.0000E+00  0.0000E+00  0.0000E+00  0.0000E+00  0.0000E+00
    -11.811  0.0000E+00  0.0000E+00  0.0000E+00  0.0000E+00  0.0000E+00  0.0000E+00  0.0000E+00  0.0000E+00  0.0000E+00
    -11.659  0.0000E+00  0.0000E+00  0.0000E+00  0.0000E+00  0.0000E+00  0.0000E+00  0.0000E+00  0.0000E+00  0.0000E+00
    -11.507  0.0000E+00  0.0000E+00  0.0000E+00  0.0000E+00  0.0000E+00  0.0000E+00  0.0000E+00  0.0000E+00  0.0000E+00
    -11.355  0.0000E+00  0.0000E+00  0.0000E+00  0.0000E+00  0.0000E+00  0.0000E+00  0.0000E+00  0.0000E+00  0.0000E+00
    -11.202  0.0000E+00  0.0000E+00  0.0000E+00  0.0000E+00  0.0000E+00  0.0000E+00  0.0000E+00  0.0000E+00  0.0000E+00
    -11.050  0.0000E+00  0.0000E+00  0.0000E+00  0.0000E+00  0.0000E+00  0.0000E+00  0.0000E+00  0.0000E+00  0.0000E+00
    -10.898  0.0000E+00  0.0000E+00  0.0000E+00  0.0000E+00  0.0000E+00  0.0000E+00  0.0000E+00  0.0000E+00  0.0000E+00
    -10.746  0.0000E+00  0.0000E+00  0.0000E+00  0.0000E+00  0.0000E+00  0.0000E+00  0.0000E+00  0.0000E+00  0.0000E+00
    -10.594  0.0000E+00  0.0000E+00  0.0000E+00  0.0000E+00  0.0000E+00  0.0000E+00  0.0000E+00  0.0000E+00  0.0000E+00
    -10.441  0.0000E+00  0.0000E+00  0.0000E+00  0.0000E+00  0.0000E+00  0.0000E+00  0.0000E+00  0.0000E+00  0.0000E+00