unknown system                          
   1.00000000000000     
     4.104300    0.000000    0.000000
    -2.052150    3.554428    0.000000
     0.000000    0.000000    5.165500
   Ge   Sr
   2   1
Direct
  0.333333  0.666667  0.406000
  0.666667  0.333333  0.594000
  0.000000  0.000000  0.000000
 
   18   18   24
 0.47853     0.57911     0.74784     0.82211     0.77095     0.43146     0.94318E-01 0.54485E-01 0.85771E-01 0.10439    
 0.85771E-01 0.54485E-01 0.94318E-01 0.43146     0.77095     0.82211     0.74784     0.57911     0.57911     0.57916    
 0.70878     0.80875     0.81035     0.62330     0.18422     0.57780E-01 0.70602E-01 0.11373     0.11243     0.69659E-01
 0.58097E-01 0.18508     0.62235     0.81036     0.80884     0.70874     0.74784     0.70878     0.74774     0.80886    
 0.81749     0.69487     0.28675     0.73961E-01 0.65649E-01 0.11994     0.15326     0.12356     0.65794E-01 0.72994E-01
 0.28722     0.69562     0.81724     0.80884     0.82209     0.80877     0.80884     0.82217     0.81026     0.69531    
 0.33154     0.86278E-01 0.67550E-01 0.12209     0.21004     0.20096     0.12236     0.67913E-01 0.86658E-01 0.33049    
 0.69552     0.81040     0.77082     0.81044     0.81739     0.81042     0.77053     0.62261     0.28741     0.87346E-01
 0.67663E-01 0.12335     0.23595     0.31290     0.23750     0.12156     0.68351E-01 0.87040E-01 0.28685     0.62262    
 0.43310     0.62220     0.69569     0.69438     0.62305     0.43407     0.18479     0.71875E-01 0.68165E-01 0.12283    
 0.25401     0.33779     0.36465     0.24778     0.12485     0.66122E-01 0.74025E-01 0.18361     0.94304E-01 0.18410    
 0.28702     0.33126     0.28915     0.18262     0.93247E-01 0.58682E-01 0.66983E-01 0.12084     0.23581     0.36546    
 0.39792     0.34511     0.24111     0.12319     0.65679E-01 0.58148E-01 0.53305E-01 0.58736E-01 0.73032E-01 0.87109E-01
 0.85809E-01 0.73816E-01 0.58014E-01 0.55092E-01 0.69610E-01 0.12073     0.20357     0.30477     0.34597     0.37657    
 0.29186     0.20944     0.11873     0.71807E-01 0.86536E-01 0.70099E-01 0.65963E-01 0.67493E-01 0.68518E-01 0.66359E-01
 0.67056E-01 0.71343E-01 0.82998E-01 0.11088     0.15961     0.21139     0.23887     0.23878     0.24226     0.20949    
 0.15463     0.11133     0.10613     0.11186     0.12203     0.11958     0.12357     0.12575     0.12272     0.11412    
 0.11386     0.10999     0.11386     0.11412     0.12272     0.12575     0.12357     0.11958     0.12203     0.11186    
 0.86536E-01 0.11133     0.15463     0.20949     0.24226     0.23878     0.23887     0.21139     0.15961     0.11088    
 0.82998E-01 0.71343E-01 0.67056E-01 0.66359E-01 0.68518E-01 0.67493E-01 0.65963E-01 0.70099E-01 0.53305E-01 0.71807E-01
 0.11873     0.20944     0.29186     0.37657     0.34597     0.30477     0.20357     0.12073     0.69610E-01 0.55092E-01
 0.58014E-01 0.73816E-01 0.85809E-01 0.87109E-01 0.73032E-01 0.58736E-01 0.94304E-01 0.58148E-01 0.65679E-01 0.12319    
 0.24111     0.34511     0.39792     0.36546     0.23581     0.12084     0.66983E-01 0.58682E-01 0.93247E-01 0.18262    
 0.28915     0.33126     0.28702     0.18410     0.43310     0.18361     0.74025E-01 0.66122E-01 0.12485     0.24778    
 0.36465     0.33779     0.25401     0.12283     0.68165E-01 0.71875E-01 0.18479     0.43407     0.62305     0.69438    
 0.69569     0.62220     0.77082     0.62262     0.28685     0.87040E-01 0.68351E-01 0.12156     0.23750     0.31290    
 0.23595     0.12335     0.67663E-01 0.87346E-01 0.28741     0.62261     0.77053     0.81042     0.81739     0.81044    
 0.82209     0.81040     0.69552     0.33049     0.86658E-01 0.67913E-01 0.12236     0.20096     0.21004     0.12209    
 0.67550E-01 0.86278E-01 0.33154     0.69531     0.81026     0.82217     0.80884     0.80877     0.74784     0.80884    
 0.81724     0.69562     0.28722     0.72994E-01 0.65794E-01 0.12356     0.15326     0.11994     0.65649E-01 0.73961E-01
 0.28675     0.69487     0.81749     0.80886     0.74774     0.70878     0.57911     0.70874     0.80884     0.81036    
 0.62235     0.18508     0.58097E-01 0.69659E-01 0.11243     0.11373     0.70602E-01 0.57780E-01 0.18422     0.62330    
 0.81035     0.80875     0.70878     0.57916     0.57502     0.65139     0.77523     0.82431     0.75168     0.37883    
 0.85250E-01 0.59583E-01 0.10045     0.12491     0.10085     0.59043E-01 0.85089E-01 0.38008     0.75154     0.82427    
 0.77523     0.65143     0.65139     0.65149     0.74555     0.81604     0.80018     0.58623     0.15919     0.52408E-01
 0.64066E-01 0.10372     0.99921E-01 0.64535E-01 0.52462E-01 0.16036     0.58417     0.80044     0.81610     0.74553    
 0.77524     0.74812     0.77513     0.81617     0.80945     0.66677     0.25563     0.63392E-01 0.50727E-01 0.85169E-01
 0.10694     0.86929E-01 0.51043E-01 0.62310E-01 0.25664     0.66748     0.80919     0.81614     0.82428     0.81966    
 0.81976     0.82430     0.80022     0.66752     0.30115     0.72765E-01 0.49179E-01 0.75215E-01 0.12339     0.11706    
 0.76540E-01 0.48603E-01 0.73796E-01 0.29955     0.66794     0.80021     0.75152     0.80250     0.81327     0.80262    
 0.75124     0.58433     0.25649     0.74466E-01 0.48099E-01 0.72414E-01 0.12715     0.16417     0.12762     0.72034E-01
 0.48635E-01 0.73791E-01 0.25577     0.58515     0.38051     0.57444     0.65760     0.65629     0.57435     0.38278    
 0.15991     0.61147E-01 0.49150E-01 0.72750E-01 0.13190     0.17668     0.18531     0.13032     0.72793E-01 0.48267E-01
 0.62993E-01 0.15889     0.85246E-01 0.15576     0.23813     0.27563     0.24002     0.15470     0.84073E-01 0.53562E-01
 0.51706E-01 0.74922E-01 0.12732     0.18586     0.20287     0.17898     0.12957     0.75807E-01 0.50812E-01 0.53009E-01
 0.58252E-01 0.66269E-01 0.78630E-01 0.88994E-01 0.88413E-01 0.79241E-01 0.65633E-01 0.59237E-01 0.64150E-01 0.85255E-01
 0.11942     0.16126     0.17926     0.18966     0.15592     0.12229     0.85223E-01 0.64536E-01 0.10126     0.97955E-01
 0.10062     0.10543     0.10617     0.10275     0.10207     0.10134     0.96963E-01 0.10025     0.11067     0.12246    
 0.12794     0.12735     0.12982     0.12108     0.10704     0.10191     0.12711     0.17011     0.20808     0.21752    
 0.23146     0.23652     0.22394     0.19463     0.17162     0.13131     0.10231     0.81919E-01 0.76219E-01 0.73190E-01
 0.72694E-01 0.74816E-01 0.86831E-01 0.99519E-01 0.10169     0.16481     0.26906     0.37439     0.42954     0.42341    
 0.42607     0.37729     0.27470     0.16594     0.98181E-01 0.64510E-01 0.52054E-01 0.48118E-01 0.48841E-01 0.48446E-01
 0.51217E-01 0.64419E-01 0.57719E-01 0.10265     0.20096     0.37285     0.49098     0.59897     0.55474     0.50950    
 0.36179     0.20874     0.97051E-01 0.60543E-01 0.52316E-01 0.63020E-01 0.72632E-01 0.74515E-01 0.61899E-01 0.53308E-01
 0.85093E-01 0.65213E-01 0.10058     0.22612     0.42737     0.55385     0.61105     0.58364     0.41900     0.22123    
 0.10222     0.65829E-01 0.84433E-01 0.15820     0.25825     0.29976     0.25655     0.15970     0.38176     0.15568    
 0.79542E-01 0.10184     0.23537     0.43929     0.58329     0.54184     0.45278     0.22822     0.10620     0.77219E-01
 0.15689     0.38113     0.58579     0.66633     0.66802     0.58366     0.75138     0.57399     0.23834     0.89601E-01
 0.10594     0.22667     0.42171     0.52388     0.41911     0.23114     0.10513     0.89549E-01 0.23854     0.57474    
 0.75102     0.80033     0.80935     0.80047     0.82424     0.80270     0.65720     0.27460     0.88820E-01 0.10648    
 0.22197     0.36019     0.37062     0.22479     0.10427     0.89070E-01 0.27501     0.65729     0.80235     0.82442    
 0.81610     0.81605     0.77523     0.81970     0.81312     0.65789     0.23833     0.78136E-01 0.10039     0.21278    
 0.26497     0.20513     0.10050     0.79010E-01 0.23836     0.65689     0.81339     0.81972     0.77514     0.74558    
 0.65143     0.74811     0.81975     0.80236     0.57434     0.15691     0.65785E-01 0.96576E-01 0.17104     0.16902    
 0.99833E-01 0.65126E-01 0.15645     0.57443     0.80257     0.81963     0.74816     0.65143     0.74313     0.77321    
 0.81918     0.81553     0.66894     0.24330     0.70145E-01 0.79262E-01 0.15064     0.19273     0.15202     0.77596E-01
 0.69965E-01 0.24537     0.66846     0.81544     0.81916     0.77328     0.77321     0.77337     0.80801     0.82377    
 0.75633     0.44782     0.10274     0.50753E-01 0.76525E-01 0.13096     0.12309     0.78682E-01 0.50665E-01 0.10383    
 0.44415     0.75710     0.82378     0.80803     0.81919     0.81090     0.81906     0.82395     0.77580     0.55291    
 0.16189     0.49647E-01 0.48481E-01 0.82548E-01 0.10472     0.83481E-01 0.48950E-01 0.48559E-01 0.16293     0.55383    
 0.77546     0.82390     0.81548     0.82831     0.82844     0.81540     0.75657     0.55472     0.19530     0.51318E-01
 0.40768E-01 0.60551E-01 0.94513E-01 0.90199E-01 0.62132E-01 0.39660E-01 0.52670E-01 0.19371     0.55513     0.75635    
 0.66866     0.75585     0.77727     0.75624     0.66841     0.44399     0.16243     0.53349E-01 0.37703E-01 0.53263E-01
 0.85618E-01 0.10433     0.85512E-01 0.53611E-01 0.38121E-01 0.52424E-01 0.16198     0.44606     0.24486     0.42103    
 0.51954     0.51822     0.41986     0.24761     0.10343     0.47477E-01 0.40401E-01 0.54015E-01 0.84022E-01 0.10911    
 0.10997     0.84121E-01 0.53314E-01 0.40154E-01 0.48896E-01 0.10269     0.70173E-01 0.10768     0.15360     0.17599    
 0.15475     0.10706     0.69213E-01 0.52365E-01 0.49073E-01 0.60510E-01 0.85871E-01 0.11018     0.11840     0.10935    
 0.86538E-01 0.60731E-01 0.48638E-01 0.51680E-01 0.77317E-01 0.84664E-01 0.91646E-01 0.96658E-01 0.96695E-01 0.92443E-01
 0.83934E-01 0.76932E-01 0.77943E-01 0.82754E-01 0.92108E-01 0.10362     0.10934     0.11059     0.10221     0.93493E-01
 0.83625E-01 0.76337E-01 0.15155     0.16395     0.17756     0.18774     0.18813     0.18197     0.17920     0.17200    
 0.14592     0.12552     0.10672     0.93008E-01 0.85559E-01 0.83894E-01 0.86365E-01 0.92019E-01 0.10373     0.12917    
 0.19646     0.29059     0.36181     0.39138     0.41934     0.42779     0.40066     0.34273     0.29170     0.20050    
 0.12743     0.80877E-01 0.61608E-01 0.53274E-01 0.53738E-01 0.60885E-01 0.84489E-01 0.12282     0.15296     0.27733    
 0.45053     0.57809     0.64073     0.63618     0.63891     0.58306     0.45279     0.28072     0.14977     0.76667E-01
 0.49873E-01 0.39722E-01 0.38422E-01 0.39597E-01 0.49158E-01 0.77843E-01 0.75702E-01 0.17495     0.34897     0.57889    
 0.68559     0.77464     0.73730     0.70210     0.56323     0.36866     0.16171     0.80638E-01 0.50306E-01 0.49274E-01
 0.51457E-01 0.53523E-01 0.47811E-01 0.51836E-01 0.69998E-01 0.82807E-01 0.17806     0.40436     0.63857     0.73692    
 0.77805     0.76251     0.62978     0.39779     0.17948     0.83722E-01 0.69701E-01 0.10247     0.16381     0.19338    
 0.16296     0.10351     0.24694     0.10779     0.92783E-01 0.17984     0.42693     0.65282     0.76259     0.72545    
 0.66894     0.41192     0.18916     0.89913E-01 0.10902     0.24474     0.44711     0.55254     0.55539     0.44294    
 0.66819     0.41970     0.15380     0.97941E-01 0.18767     0.41139     0.63164     0.71736     0.62929     0.41913    
 0.18682     0.97521E-01 0.15373     0.42123     0.66767     0.75675     0.77559     0.75712     0.81539     0.75650    
 0.51881     0.17512     0.96634E-01 0.19049     0.39691     0.56312     0.57222     0.40427     0.18426     0.97509E-01
 0.17507     0.51938     0.75571     0.81572     0.82379     0.82376     0.81916     0.82829     0.77714     0.52026    
 0.15374     0.90581E-01 0.17693     0.37217     0.44256     0.35862     0.17756     0.91666E-01 0.15390     0.51898    
 0.77747     0.82833     0.81907     0.80810     0.77328     0.81092     0.82842     0.75558     0.42063     0.10880    
 0.84388E-01 0.16013     0.29262     0.28427     0.16846     0.83117E-01 0.10859     0.41980     0.75624     0.82824    
 0.81099     0.77323     0.82804     0.83130     0.82388     0.74703     0.44874     0.11712     0.69569E-01 0.13065    
 0.24819     0.31019     0.25171     0.12578     0.69525E-01 0.11892     0.44766     0.74681     0.82380     0.83146    
 0.83130     0.83157     0.82823     0.78855     0.61098     0.22679     0.62311E-01 0.60534E-01 0.11520     0.19518    
 0.18226     0.11966     0.60773E-01 0.62985E-01 0.22298     0.61299     0.78845     0.82831     0.82389     0.83007    
 0.82372     0.78887     0.65698     0.31703     0.77734E-01 0.43290E-01 0.59901E-01 0.10545     0.13401     0.10571    
 0.60605E-01 0.42107E-01 0.78295E-01 0.31848     0.65638     0.78876     0.74690     0.78959     0.78975     0.74655    
 0.61164     0.32072     0.89605E-01 0.36195E-01 0.41843E-01 0.66848E-01 0.98620E-01 0.96252E-01 0.68404E-01 0.40244E-01
 0.37632E-01 0.88736E-01 0.32023     0.61112     0.44821     0.59257     0.63592     0.59355     0.44842     0.22207    
 0.77894E-01 0.38420E-01 0.35602E-01 0.52433E-01 0.79038E-01 0.89872E-01 0.78497E-01 0.53439E-01 0.36018E-01 0.37304E-01
 0.77799E-01 0.22476     0.11826     0.20788     0.27536     0.27475     0.20627     0.12037     0.62717E-01 0.40896E-01
 0.41234E-01 0.53868E-01 0.72238E-01 0.89297E-01 0.86427E-01 0.73357E-01 0.52425E-01 0.41428E-01 0.42073E-01 0.62354E-01
 0.69679E-01 0.83867E-01 0.10169     0.11048     0.10227     0.83240E-01 0.69028E-01 0.63635E-01 0.59943E-01 0.66607E-01
 0.79106E-01 0.86469E-01 0.89949E-01 0.88409E-01 0.78841E-01 0.66527E-01 0.60273E-01 0.62301E-01 0.12695     0.13694    
 0.14151     0.14238     0.14326     0.14322     0.13621     0.12265     0.11896     0.10618     0.97667E-01 0.90577E-01
 0.88349E-01 0.85386E-01 0.91418E-01 0.97581E-01 0.10817     0.11359     0.24899     0.29461     0.33258     0.35626    
 0.35844     0.34544     0.33405     0.30999     0.24260     0.18725     0.13397     0.97008E-01 0.78185E-01 0.74692E-01
 0.78295E-01 0.96688E-01 0.13138     0.19362     0.31620     0.45804     0.55650     0.60326     0.63420     0.64364    
 0.61116     0.53637     0.46124     0.31716     0.18917     0.10564     0.67909E-01 0.51945E-01 0.53398E-01 0.67259E-01
 0.10840     0.18205     0.25258     0.44146     0.63504     0.73431     0.77843     0.77303     0.77772     0.74047    
 0.63283     0.44465     0.25210     0.11395     0.61746E-01 0.40650E-01 0.36462E-01 0.40175E-01 0.61016E-01 0.11732    
 0.12226     0.31427     0.54001     0.73912     0.79487     0.84513     0.82067     0.80621     0.72371     0.56997    
 0.28774     0.13259     0.59718E-01 0.42975E-01 0.36418E-01 0.38625E-01 0.40919E-01 0.62780E-01 0.69645E-01 0.13382    
 0.33439     0.61406     0.77709     0.82060     0.84053     0.83751     0.77017     0.60951     0.33406     0.13544    
 0.69464E-01 0.62428E-01 0.78582E-01 0.88283E-01 0.78388E-01 0.62900E-01 0.12008     0.83769E-01 0.14378     0.34163    
 0.64289     0.78497     0.83762     0.81272     0.79712     0.62512     0.35966     0.13860     0.85450E-01 0.11751    
 0.22613     0.31697     0.32131     0.22124     0.44713     0.20666     0.10164     0.14509     0.35756     0.62613    
 0.77081     0.81757     0.76946     0.63465     0.35679     0.14387     0.10154     0.20802     0.44653     0.61232    
 0.65621     0.61314     0.74669     0.59420     0.27473     0.10991     0.14236     0.36272     0.60782     0.72369    
 0.73101     0.61621     0.34929     0.14461     0.10966     0.27553     0.59256     0.74741     0.78845     0.78851    
 0.82381     0.78939     0.63585     0.27626     0.10185     0.13882     0.33130     0.57049     0.62638     0.55358    
 0.33309     0.14101     0.10182     0.27537     0.63619     0.78947     0.82374     0.82842     0.83146     0.83016    
 0.78973     0.59204     0.20730     0.85116E-01 0.13741     0.28495     0.46242     0.44954     0.30139     0.13498    
 0.84807E-01 0.20630     0.59366     0.78938     0.83028     0.83129     0.81105     0.79546     0.72359     0.49387    
 0.16855     0.68323E-01 0.10218     0.24012     0.38386     0.44463     0.39009     0.22744     0.10253     0.69995E-01
 0.16766     0.49327     0.72337     0.79585     0.79546     0.79607     0.75312     0.60882     0.28917     0.84407E-01
 0.54675E-01 0.94630E-01 0.19416     0.28751     0.27288     0.20041     0.96869E-01 0.54932E-01 0.82243E-01 0.29180    
 0.60852     0.75338     0.72363     0.75144     0.72335     0.60961     0.34864     0.10590     0.44076E-01 0.53377E-01
 0.93926E-01 0.15713     0.19069     0.15627     0.95233E-01 0.51455E-01 0.44329E-01 0.10725     0.34759     0.60930    
 0.49352     0.59302     0.59325     0.49245     0.28994     0.10916     0.43538E-01 0.35251E-01 0.58430E-01 0.96672E-01
 0.12969     0.13019     0.98050E-01 0.55618E-01 0.37269E-01 0.43148E-01 0.10805     0.28968     0.16806     0.26431    
 0.30612     0.26538     0.16872     0.81105E-01 0.44184E-01 0.38565E-01 0.46460E-01 0.71029E-01 0.10027     0.10623    
 0.99036E-01 0.73300E-01 0.47167E-01 0.36787E-01 0.44194E-01 0.82922E-01 0.69355E-01 0.94364E-01 0.11366     0.11374    
 0.93070E-01 0.71329E-01 0.54631E-01 0.49281E-01 0.57310E-01 0.74333E-01 0.86755E-01 0.10393     0.96862E-01 0.89565E-01
 0.71029E-01 0.58172E-01 0.50713E-01 0.54795E-01 0.10267     0.10690     0.11261     0.11547     0.11312     0.10529    
 0.10246     0.10274     0.93129E-01 0.95630E-01 0.99821E-01 0.96844E-01 0.98853E-01 0.10150     0.98561E-01 0.95477E-01
 0.95161E-01 0.98858E-01 0.23226     0.25883     0.27582     0.27783     0.28081     0.27981     0.25927     0.21834    
 0.20153     0.15820     0.13075     0.10895     0.10147     0.94488E-01 0.11199     0.12828     0.16247     0.18932    
 0.38459     0.47614     0.53638     0.57045     0.57477     0.55678     0.53807     0.49610     0.37813     0.27910    
 0.18855     0.12796     0.97907E-01 0.92705E-01 0.97378E-01 0.12912     0.18599     0.28678     0.45163     0.60485    
 0.69637     0.73012     0.74571     0.75339     0.73451     0.67975     0.61159     0.44902     0.28074     0.16000    
 0.97779E-01 0.69887E-01 0.73261E-01 0.96569E-01 0.16160     0.27275     0.39083     0.59416     0.73741     0.78469    
 0.79765     0.78684     0.79728     0.79017     0.73449     0.59385     0.39494     0.18816     0.97485E-01 0.56581E-01
 0.47936E-01 0.55514E-01 0.96466E-01 0.19500     0.22011     0.49884     0.68157     0.79044     0.79380     0.81060    
 0.79413     0.80158     0.77832     0.70971     0.46153     0.24307     0.93449E-01 0.52871E-01 0.35540E-01 0.38865E-01
 0.48926E-01 0.10141     0.10303     0.25478     0.53978     0.73581     0.79696     0.79412     0.79767     0.80558    
 0.79172     0.73430     0.53715     0.25760     0.10243     0.55050E-01 0.44393E-01 0.42827E-01 0.44468E-01 0.55001E-01
 0.71073E-01 0.10585     0.28134     0.55253     0.75241     0.79485     0.80562     0.78888     0.80307     0.73870    
 0.57582     0.26918     0.10990     0.68189E-01 0.84171E-01 0.10604     0.10940     0.80842E-01 0.16715     0.93778E-01
 0.11209     0.28435     0.57383     0.74005     0.79192     0.80954     0.79130     0.74658     0.57320     0.28080    
 0.11212     0.94531E-01 0.16680     0.29149     0.34661     0.29232     0.49293     0.26608     0.11347     0.11489    
 0.27750     0.57979     0.73314     0.77782     0.78380     0.73852     0.56205     0.28369     0.11443     0.11392    
 0.26447     0.49447     0.60837     0.60894     0.72341     0.59238     0.30611     0.11429     0.11307     0.26804    
 0.53515     0.70832     0.73134     0.69349     0.53848     0.27334     0.11258     0.11408     0.30616     0.59251    
 0.72344     0.75361     0.79585     0.75174     0.59324     0.26380     0.93753E-01 0.10939     0.26182     0.45941    
 0.61060     0.60083     0.48034     0.25814     0.10820     0.93206E-01 0.26555     0.59256     0.75201     0.79536    
 0.59714     0.53987     0.35668     0.14433     0.65846E-01 0.79824E-01 0.19172     0.39702     0.50576     0.54534    
 0.51333     0.37283     0.19333     0.83418E-01 0.65189E-01 0.14371     0.35645     0.54090     0.53987     0.54134    
 0.42184     0.21419     0.77733E-01 0.52362E-01 0.82219E-01 0.16791     0.30611     0.38286     0.37024     0.31218    
 0.17687     0.81471E-01 0.50272E-01 0.78993E-01 0.21415     0.42231     0.35679     0.41183     0.35648     0.21531    
 0.90529E-01 0.43086E-01 0.46891E-01 0.92824E-01 0.16014     0.23166     0.26254     0.22919     0.16278     0.87925E-01
 0.47126E-01 0.44348E-01 0.89775E-01 0.21483     0.14402     0.20086     0.20113     0.14310     0.78055E-01 0.45899E-01
 0.39922E-01 0.52797E-01 0.10218     0.15359     0.18442     0.18851     0.15472     0.95953E-01 0.57485E-01 0.39574E-01
 0.44683E-01 0.78212E-01 0.65385E-01 0.84675E-01 0.94544E-01 0.85185E-01 0.65974E-01 0.48627E-01 0.47286E-01 0.60879E-01
 0.80100E-01 0.11507     0.14918     0.14979     0.14685     0.12004     0.81807E-01 0.56373E-01 0.47257E-01 0.50534E-01
 0.81998E-01 0.87528E-01 0.90043E-01 0.90597E-01 0.85472E-01 0.86471E-01 0.80758E-01 0.82087E-01 0.99579E-01 0.12272    
 0.12742     0.15090     0.13695     0.13328     0.11510     0.10212     0.85038E-01 0.82523E-01 0.19389     0.20402    
 0.21153     0.21433     0.21274     0.19805     0.19474     0.19012     0.15830     0.15091     0.14784     0.13690    
 0.13975     0.14583     0.14513     0.15102     0.16362     0.17860     0.38277     0.43243     0.47059     0.47620    
 0.48190     0.47712     0.43566     0.35522     0.31726     0.23224     0.18803     0.15567     0.14586     0.13269    
 0.16166     0.18206     0.24003     0.29673     0.50658     0.60656     0.64920     0.66678     0.66594     0.65461    
 0.65159     0.62539     0.49974     0.37576     0.25930     0.18221     0.14423     0.13935     0.14292     0.18574    
 0.25617     0.38288     0.55165     0.66857     0.71157     0.70828     0.70587     0.71188     0.71050     0.69851    
 0.67627     0.54872     0.37693     0.23747     0.15471     0.11284     0.11996     0.15242     0.23742     0.37052    
 0.51454     0.66339     0.72238     0.71492     0.71018     0.70140     0.71003     0.71919     0.72052     0.66046    
 0.52122     0.29136     0.16853     0.98092E-01 0.83758E-01 0.95640E-01 0.16655     0.30207     0.35975     0.62563    
 0.69980     0.72006     0.70203     0.71506     0.70440     0.70745     0.71069     0.72232     0.58760     0.40195    
 0.16656     0.91245E-01 0.53369E-01 0.61555E-01 0.80778E-01 0.18839     0.19517     0.42969     0.65302     0.71114    
 0.70991     0.70439     0.70984     0.71186     0.70582     0.71126     0.64956     0.43371     0.19223     0.83387E-01
 0.46997E-01 0.39295E-01 0.47406E-01 0.81915E-01 0.85762E-01 0.19884     0.48047     0.65138     0.71064     0.70691    
 0.71187     0.70118     0.71231     0.70088     0.67229     0.45811     0.21274     0.79145E-01 0.52312E-01 0.43195E-01
 0.46043E-01 0.48548E-01 0.64767E-01 0.87116E-01 0.20929     0.48735     0.66550     0.70193     0.70592     0.71275    
 0.70582     0.70673     0.66477     0.48058     0.21003     0.87872E-01 0.64638E-01 0.79098E-01 0.89045E-01 0.79427E-01
 0.14337     0.85538E-01 0.90077E-01 0.21327     0.47496     0.67568     0.71061     0.71006     0.71496     0.71344    
 0.65994     0.48659     0.21201     0.90473E-01 0.84735E-01 0.14467     0.21368     0.21489     0.35659     0.20036    
 0.94496E-01 0.90919E-01 0.21364     0.45481     0.64830     0.72077     0.71841     0.70891     0.65241     0.46441    
 0.21119     0.90994E-01 0.94414E-01 0.20037     0.35679     0.42266     0.54089     0.41240     0.20111     0.84437E-01
 0.86171E-01 0.21186     0.43967     0.58740     0.67365     0.66877     0.60609     0.43639     0.20637     0.85841E-01
 0.85256E-01 0.20069     0.41285     0.53951     0.15383     0.12428     0.73317E-01 0.50180E-01 0.68286E-01 0.14411    
 0.32769     0.52105     0.56656     0.58781     0.57501     0.48758     0.33015     0.15706     0.66773E-01 0.49589E-01
 0.73401E-01 0.12480     0.12427     0.12502     0.85587E-01 0.50689E-01 0.42615E-01 0.75984E-01 0.15392     0.26713    
 0.40821     0.45848     0.44731     0.41180     0.28922     0.15086     0.70048E-01 0.43844E-01 0.50896E-01 0.85642E-01
 0.73433E-01 0.85566E-01 0.73282E-01 0.51492E-01 0.40105E-01 0.43315E-01 0.81818E-01 0.17567     0.24470     0.30876    
 0.33544     0.30578     0.25023     0.16159     0.81673E-01 0.46406E-01 0.39399E-01 0.51135E-01 0.49879E-01 0.57093E-01
 0.57365E-01 0.49155E-01 0.42999E-01 0.50070E-01 0.65685E-01 0.96223E-01 0.17884     0.22958     0.25469     0.26161    
 0.22982     0.16530     0.10963     0.65559E-01 0.46841E-01 0.43269E-01 0.67094E-01 0.67665E-01 0.69105E-01 0.68415E-01
 0.68109E-01 0.64920E-01 0.83538E-01 0.12046     0.14390     0.18443     0.22217     0.21801     0.21879     0.19365    
 0.14859     0.10667     0.82490E-01 0.70105E-01 0.15235     0.15958     0.15686     0.15879     0.15343     0.16857    
 0.14754     0.14591     0.17353     0.19908     0.19480     0.22688     0.20554     0.20414     0.18506     0.17788    
 0.15368     0.15558     0.33167     0.36000     0.37868     0.38608     0.38129     0.34357     0.33684     0.31465    
 0.24181     0.22397     0.21994     0.20551     0.21040     0.21923     0.21555     0.22516     0.25216     0.28976    
 0.50041     0.54548     0.57381     0.56850     0.57577     0.58179     0.54813     0.46392     0.42185     0.30957    
 0.26061     0.22678     0.21941     0.19895     0.23613     0.25112     0.32009     0.39439     0.56812     0.62761    
 0.62725     0.62867     0.62596     0.61821     0.63137     0.64405     0.55984     0.45219     0.33119     0.25251    
 0.21395     0.21422     0.21199     0.25801     0.32777     0.45845     0.59434     0.64231     0.63843     0.63734    
 0.64820     0.65227     0.63837     0.62754     0.65124     0.59064     0.45408     0.31598     0.23115     0.18044    
 0.19420     0.22578     0.31681     0.44716     0.57591     0.64055     0.63869     0.64784     0.66474     0.66414    
 0.66531     0.65058     0.63756     0.63639     0.58351     0.38487     0.26130     0.16904     0.15352     0.16443    
 0.25744     0.39859     0.46877     0.64376     0.62863     0.65139     0.66306     0.67366     0.66593     0.66704    
 0.64430     0.64745     0.60674     0.52873     0.26501     0.17195     0.97136E-01 0.12277     0.14195     0.31418    
 0.33665     0.54250     0.63223     0.63876     0.66525     0.66593     0.66559     0.67103     0.66214     0.63949    
 0.62833     0.54805     0.32761     0.15778     0.81389E-01 0.64850E-01 0.83107E-01 0.15119     0.16539     0.34526    
 0.58551     0.61582     0.65123     0.66819     0.67104     0.66422     0.67174     0.64401     0.63370     0.55733    
 0.38144     0.14228     0.75833E-01 0.43617E-01 0.50168E-01 0.65137E-01 0.65653E-01 0.15981     0.37190     0.58231    
 0.62576     0.64479     0.66220     0.67054     0.66179     0.64863     0.62533     0.57378     0.37504     0.16109    
 0.65728E-01 0.44127E-01 0.38709E-01 0.44492E-01 0.49301E-01 0.68780E-01 0.15731     0.38320     0.56700     0.63673    
 0.63911     0.64376     0.64784     0.64118     0.62305     0.58030     0.38084     0.15822     0.67541E-01 0.50357E-01
 0.50526E-01 0.51376E-01 0.73471E-01 0.56954E-01 0.68984E-01 0.15986     0.38499     0.55254     0.62749     0.64573    
 0.63619     0.63573     0.63072     0.56572     0.37812     0.16017     0.68930E-01 0.56898E-01 0.73532E-01 0.85713E-01
 0.12480     0.85719E-01 0.57337E-01 0.67187E-01 0.15437     0.38115     0.55374     0.60830     0.64740     0.64473    
 0.62481     0.55305     0.36347     0.15464     0.68315E-01 0.57165E-01 0.85885E-01 0.12405     0.33485E-01 0.32617E-01
 0.34915E-01 0.55901E-01 0.12362     0.23737     0.44221     0.56996     0.57087     0.58456     0.58226     0.53355    
 0.43627     0.27273     0.11978     0.53985E-01 0.35156E-01 0.32766E-01 0.32597E-01 0.32829E-01 0.32062E-01 0.36666E-01
 0.60606E-01 0.15120     0.24630     0.35092     0.48120     0.51191     0.50157     0.47817     0.38447     0.24713    
 0.12981     0.62908E-01 0.37454E-01 0.31962E-01 0.35108E-01 0.35235E-01 0.34929E-01 0.38645E-01 0.50692E-01 0.71779E-01
 0.15769     0.28214     0.32238     0.38573     0.41266     0.38289     0.33483     0.25514     0.15035     0.82615E-01
 0.49732E-01 0.37714E-01 0.54655E-01 0.52133E-01 0.52822E-01 0.52636E-01 0.61901E-01 0.96102E-01 0.11991     0.16515    
 0.27722     0.31923     0.34386     0.35279     0.31845     0.25159     0.19348     0.12556     0.83646E-01 0.61714E-01
 0.12084     0.11630     0.11650     0.11941     0.12173     0.11316     0.16312     0.21677     0.22694     0.27850    
 0.32504     0.31991     0.32071     0.29116     0.23939     0.18740     0.15290     0.12912     0.26142     0.28558    
 0.28090     0.28471     0.27402     0.30293     0.23184     0.22807     0.26907     0.29851     0.29721     0.34153    
 0.31486     0.30959     0.27961     0.27015     0.24099     0.25820     0.43849     0.46868     0.48169     0.48784    
 0.48153     0.44359     0.45731     0.41567     0.31927     0.31183     0.32227     0.31501     0.32453     0.33246    
 0.31601     0.31372     0.33710     0.38390     0.54640     0.55739     0.56028     0.54663     0.55619     0.56798    
 0.55306     0.51107     0.49490     0.38614     0.35136     0.33030     0.33277     0.30621     0.34235     0.33985    
 0.39855     0.46123     0.57565     0.58292     0.57350     0.58758     0.58927     0.57883     0.58052     0.59530    
 0.56419     0.50749     0.40728     0.34289     0.31346     0.32342     0.31136     0.34914     0.40401     0.51164    
 0.59185     0.58242     0.59227     0.60737     0.61257     0.61448     0.60749     0.58337     0.59397     0.58447    
 0.51081     0.39055     0.32403     0.27027     0.29479     0.31109     0.39711     0.49992     0.57929     0.58442    