 vasp.5.2.2 15Apr09 complex 
 executed on             LinuxIFC date 2012.06.25  23:20:50
 running on    8 nodes
 distr:  one band on    4 nodes,    2 groups


--------------------------------------------------------------------------------------------------------


 INCAR:
 POTCAR:   PAW_PBE Ge_d 06Sep2000                 
 POTCAR:   PAW_PBE Sr_sv 07Sep2000                
 POTCAR:   PAW_PBE Ge_d 06Sep2000                 
   VRHFIN =Ge: 3d4s4p                                                           
   LEXCH  = PE                                                                  
   EATOM  =  2596.4246 eV,  190.8318 Ry                                         
                                                                                
   TITEL  = PAW_PBE Ge_d 06Sep2000                                              
   LULTRA =        F    use ultrasoft PP ?                                      
   IUNSCR =        1    unscreen: 0-lin 1-nonlin 2-no                           
   RPACOR =    2.000    partial core radius                                     
   POMASS =   72.610; ZVAL   =   14.000    mass and valenz                      
   RCORE  =    2.300    outmost cutoff radius                                   
   RWIGS  =    2.300; RWIGS  =    1.217    wigner-seitz radius (au A)           
   ENMAX  =  287.568; ENMIN  =  215.676 eV                                      
   ICORE  =        3    local potential                                         
   LCOR   =        T    correct aug charges                                     
   LPAW   =        T    paw PP                                                  
   EAUG   =  531.356                                                            
   DEXC   =     .000                                                            
   RMAX   =    2.719    core radius for proj-oper                               
   RAUG   =    1.300    factor for augmentation sphere                          
   RDEP   =    2.318    radius for radial grids                                 
   QCUT   =   -4.597; QGAM   =    9.195    optimization parameters              
                                                                                
   Description                                                                  
     l     E      TYP  RCUT    TYP  RCUT                                        
     2   .000     23  2.300                                                     
     2  -.100     23  2.300                                                     
     0   .000     23  2.300                                                     
     0   .000     23  2.300                                                     
     1   .000     23  2.300                                                     
     1   .000     23  2.300                                                     
     3  -.100      7  2.300                                                     
  local pseudopotential read in
  partial core-charges read in
  atomic valenz-charges read in
  non local Contribution for L=           2  read in
    real space projection operators read in
  non local Contribution for L=           2  read in
    real space projection operators read in
  non local Contribution for L=           0  read in
    real space projection operators read in
  non local Contribution for L=           0  read in
    real space projection operators read in
  non local Contribution for L=           1  read in
    real space projection operators read in
  non local Contribution for L=           1  read in
    real space projection operators read in
    PAW grid and wavefunctions read in
 
   number of l-projection  operators is LMAX  =           6
   number of lm-projection operators is LMMAX =          18
 
 POTCAR:   PAW_PBE Sr_sv 07Sep2000                
   VRHFIN =Sr: 4s4p5s                                                           
   LEXCH  = PE                                                                  
   EATOM  =   842.4562 eV,   61.9188 Ry                                         
                                                                                
   TITEL  = PAW_PBE Sr_sv 07Sep2000                                             
   LULTRA =        F    use ultrasoft PP ?                                      
   IUNSCR =        1    unscreen: 0-lin 1-nonlin 2-no                           
   RPACOR =    2.200    partial core radius                                     
   POMASS =   87.620; ZVAL   =   10.000    mass and valenz                      
   RCORE  =    2.500    outmost cutoff radius                                   
   RWIGS  =    4.040; RWIGS  =    2.138    wigner-seitz radius (au A)           
   ENMAX  =  229.282; ENMIN  =  171.961 eV                                      
   RCLOC  =    2.201    cutoff for local pot                                    
   LCOR   =        T    correct aug charges                                     
   LPAW   =        T    paw PP                                                  
   EAUG   =  366.804                                                            
   DEXC   =     .000                                                            
   RMAX   =    3.045    core radius for proj-oper                               
   RAUG   =    1.300    factor for augmentation sphere                          
   RDEP   =    2.562    radius for radial grids                                 
   QCUT   =   -4.105; QGAM   =    8.210    optimization parameters              
                                                                                
   Description                                                                  
     l     E      TYP  RCUT    TYP  RCUT                                        
     0   .000     23  2.480                                                     
     0   .000     23  2.480                                                     
     1   .000     23  2.500                                                     
     1   .000     23  2.500                                                     
     2   .000     23  2.500                                                     
     2   .000     23  2.500                                                     
  local pseudopotential read in
  partial core-charges read in
  atomic valenz-charges read in
  non local Contribution for L=           0  read in
    real space projection operators read in
  non local Contribution for L=           0  read in
    real space projection operators read in
  non local Contribution for L=           1  read in
    real space projection operators read in
  non local Contribution for L=           1  read in
    real space projection operators read in
  non local Contribution for L=           2  read in
    real space projection operators read in
  non local Contribution for L=           2  read in
    real space projection operators read in
    PAW grid and wavefunctions read in
 
   number of l-projection  operators is LMAX  =           6
   number of lm-projection operators is LMMAX =          18
 
 PAW_PBE Ge_d 06Sep2000                 :
 energy of atom  1       EATOM=-2596.4246
 kinetic energy error for atom=    0.0225 (will be added to EATOM!!)
 PAW_PBE Sr_sv 07Sep2000                :
 energy of atom  2       EATOM= -842.4562
 kinetic energy error for atom=    0.0117 (will be added to EATOM!!)
 
 
 POSCAR: Ge Sr                                   
  positions in direct lattice
  No initial velocities read in
 exchange correlation table for  LEXCH =        8
   RHO(1)=    0.500       N(1)  =     2000
   RHO(2)=  100.500       N(2)  =     4000
 


--------------------------------------------------------------------------------------------------------


 ion  position               nearest neighbor table
   1  0.333  0.667  0.406-   2 2.56   2 2.56   2 2.56   3 3.16   3 3.16   3 3.16   3 3.88   3 3.88
                             3 3.88
   2  0.667  0.333  0.594-   1 2.56   1 2.56   1 2.56   3 3.16   3 3.16   3 3.16   3 3.88   3 3.88
                             3 3.88
   3  0.000  0.000  0.000-   1 3.16   2 3.16   1 3.16   2 3.16   2 3.16   1 3.16   2 3.88   1 3.88
                             1 3.88   2 3.88   2 3.88   1 3.88
 
  LATTYP: Found a hexagonal cell.
 ALAT       =     4.1042999439
 C/A-ratio  =     1.2585581148
  
  Lattice vectors:
  
 A1 = (   4.1043000000,   0.0000000000,   0.0000000000)
 A2 = (  -2.0521500000,   3.5544280000,   0.0000000000)
 A3 = (   0.0000000000,   0.0000000000,   5.1655000000)
 Subroutine PRICEL returns:
 Original cell was already a primitive cell.
 

Analysis of symmetry for initial positions (statically):

 Routine SETGRP: Setting up the symmetry group for a 
 hexagonal supercell.


 Subroutine GETGRP returns: Found 12 space group operations
 (whereof 12 operations were pure point group operations)
 out of a pool of 24 trial point group operations.


The static configuration has the point symmetry D_3d.

Analysis of symmetry for dynamics (positions and initial velocities):

 Subroutine DYNSYM returns: Found 12 space group operations
 (whereof 12 operations were pure point group operations)
 out of a pool of 12 trial space group operations
 (whereof 12 operations were pure point group operations)
 and found also     1 'primitive' translations


The dynamic configuration has the point symmetry D_3d.
 
 
 KPOINTS: KPOINTS created by Atomic Simulation Env

Automatic generation of k-mesh.
 
 Subroutine IBZKPT returns following result:
 ===========================================
 
 Found    144 irreducible k-points:
 
 Following reciprocal coordinates:
            Coordinates               Weight
  0.000000  0.000000  0.000000      1.000000
  0.071429  0.000000  0.000000      6.000000
  0.142857  0.000000  0.000000      6.000000
  0.214286  0.000000  0.000000      6.000000
  0.285714  0.000000  0.000000      6.000000
  0.357143  0.000000  0.000000      6.000000
  0.428571  0.000000  0.000000      6.000000
  0.500000  0.000000  0.000000      3.000000
  0.071429  0.071429  0.000000      6.000000
  0.142857  0.071429  0.000000     12.000000
  0.214286  0.071429  0.000000     12.000000
  0.285714  0.071429  0.000000     12.000000
  0.357143  0.071429  0.000000     12.000000
  0.428571  0.071429  0.000000     12.000000
  0.142857  0.142857  0.000000      6.000000
  0.214286  0.142857  0.000000     12.000000
  0.285714  0.142857  0.000000     12.000000
  0.357143  0.142857  0.000000     12.000000
  0.428571  0.142857  0.000000      6.000000
  0.214286  0.214286  0.000000      6.000000
  0.285714  0.214286  0.000000     12.000000
  0.357143  0.214286  0.000000     12.000000
  0.285714  0.285714  0.000000      6.000000
  0.357143  0.285714  0.000000      6.000000
  0.000000  0.000000  0.142857      2.000000
  0.071429  0.000000  0.142857      6.000000
  0.142857  0.000000  0.142857      6.000000
  0.214286  0.000000  0.142857      6.000000
  0.285714  0.000000  0.142857      6.000000
  0.357143  0.000000  0.142857      6.000000
  0.428571  0.000000  0.142857      6.000000
  0.500000  0.000000  0.142857      6.000000
 -0.428571  0.000000  0.142857      6.000000
 -0.357143  0.000000  0.142857      6.000000
 -0.285714  0.000000  0.142857      6.000000
 -0.214286  0.000000  0.142857      6.000000
 -0.142857  0.000000  0.142857      6.000000
 -0.071429  0.000000  0.142857      6.000000
  0.071429  0.071429  0.142857     12.000000
  0.142857  0.071429  0.142857     12.000000
  0.214286  0.071429  0.142857     12.000000
  0.285714  0.071429  0.142857     12.000000
  0.357143  0.071429  0.142857     12.000000
  0.428571  0.071429  0.142857     12.000000
  0.500000  0.071429  0.142857     12.000000
 -0.428571  0.071429  0.142857     12.000000
 -0.357143  0.071429  0.142857     12.000000
 -0.285714  0.071429  0.142857     12.000000
 -0.214286  0.071429  0.142857     12.000000
  0.142857  0.142857  0.142857     12.000000
  0.214286  0.142857  0.142857     12.000000
  0.285714  0.142857  0.142857     12.000000
  0.357143  0.142857  0.142857     12.000000
  0.428571  0.142857  0.142857     12.000000
  0.500000  0.142857  0.142857     12.000000
 -0.428571  0.142857  0.142857     12.000000
 -0.357143  0.142857  0.142857     12.000000
  0.214286  0.214286  0.142857     12.000000
  0.285714  0.214286  0.142857     12.000000
  0.357143  0.214286  0.142857     12.000000
  0.428571  0.214286  0.142857     12.000000
  0.500000  0.214286  0.142857     12.000000
  0.285714  0.285714  0.142857     12.000000
  0.357143  0.285714  0.142857     12.000000
  0.000000  0.000000  0.285714      2.000000
  0.071429  0.000000  0.285714      6.000000
  0.142857  0.000000  0.285714      6.000000
  0.214286  0.000000  0.285714      6.000000
  0.285714  0.000000  0.285714      6.000000
  0.357143  0.000000  0.285714      6.000000
  0.428571  0.000000  0.285714      6.000000
  0.500000  0.000000  0.285714      6.000000
 -0.428571  0.000000  0.285714      6.000000
 -0.357143  0.000000  0.285714      6.000000
 -0.285714  0.000000  0.285714      6.000000
 -0.214286  0.000000  0.285714      6.000000
 -0.142857  0.000000  0.285714      6.000000
 -0.071429  0.000000  0.285714      6.000000
  0.071429  0.071429  0.285714     12.000000
  0.142857  0.071429  0.285714     12.000000
  0.214286  0.071429  0.285714     12.000000
  0.285714  0.071429  0.285714     12.000000
  0.357143  0.071429  0.285714     12.000000
  0.428571  0.071429  0.285714     12.000000
  0.500000  0.071429  0.285714     12.000000
 -0.428571  0.071429  0.285714     12.000000
 -0.357143  0.071429  0.285714     12.000000
 -0.285714  0.071429  0.285714     12.000000
 -0.214286  0.071429  0.285714     12.000000
  0.142857  0.142857  0.285714     12.000000
  0.214286  0.142857  0.285714     12.000000
  0.285714  0.142857  0.285714     12.000000
  0.357143  0.142857  0.285714     12.000000
  0.428571  0.142857  0.285714     12.000000
  0.500000  0.142857  0.285714     12.000000
 -0.428571  0.142857  0.285714     12.000000
 -0.357143  0.142857  0.285714     12.000000
  0.214286  0.214286  0.285714     12.000000
  0.285714  0.214286  0.285714     12.000000
  0.357143  0.214286  0.285714     12.000000
  0.428571  0.214286  0.285714     12.000000
  0.500000  0.214286  0.285714     12.000000
  0.285714  0.285714  0.285714     12.000000
  0.357143  0.285714  0.285714     12.000000
  0.000000  0.000000  0.428571      2.000000
  0.071429  0.000000  0.428571      6.000000
  0.142857  0.000000  0.428571      6.000000
  0.214286  0.000000  0.428571      6.000000
  0.285714  0.000000  0.428571      6.000000
  0.357143  0.000000  0.428571      6.000000
  0.428571  0.000000  0.428571      6.000000
  0.500000  0.000000  0.428571      6.000000
 -0.428571  0.000000  0.428571      6.000000
 -0.357143  0.000000  0.428571      6.000000
 -0.285714  0.000000  0.428571      6.000000
 -0.214286  0.000000  0.428571      6.000000
 -0.142857  0.000000  0.428571      6.000000
 -0.071429  0.000000  0.428571      6.000000
  0.071429  0.071429  0.428571     12.000000
  0.142857  0.071429  0.428571     12.000000
  0.214286  0.071429  0.428571     12.000000
  0.285714  0.071429  0.428571     12.000000
  0.357143  0.071429  0.428571     12.000000
  0.428571  0.071429  0.428571     12.000000
  0.500000  0.071429  0.428571     12.000000
 -0.428571  0.071429  0.428571     12.000000
 -0.357143  0.071429  0.428571     12.000000
 -0.285714  0.071429  0.428571     12.000000
 -0.214286  0.071429  0.428571     12.000000
  0.142857  0.142857  0.428571     12.000000
  0.214286  0.142857  0.428571     12.000000
  0.285714  0.142857  0.428571     12.000000
  0.357143  0.142857  0.428571     12.000000
  0.428571  0.142857  0.428571     12.000000
  0.500000  0.142857  0.428571     12.000000
 -0.428571  0.142857  0.428571     12.000000
 -0.357143  0.142857  0.428571     12.000000
  0.214286  0.214286  0.428571     12.000000
  0.285714  0.214286  0.428571     12.000000
  0.357143  0.214286  0.428571     12.000000
  0.428571  0.214286  0.428571     12.000000
  0.500000  0.214286  0.428571     12.000000
  0.285714  0.285714  0.428571     12.000000
  0.357143  0.285714  0.428571     12.000000
 
 Following cartesian coordinates:
            Coordinates               Weight
  0.000000  0.000000  0.000000      1.000000
  0.017403  0.010048  0.000000      6.000000
  0.034807  0.020096  0.000000      6.000000
  0.052210  0.030143  0.000000      6.000000
  0.069613  0.040191  0.000000      6.000000
  0.087017  0.050239  0.000000      6.000000
  0.104420  0.060287  0.000000      6.000000
  0.121823  0.070335  0.000000      3.000000
  0.017403  0.030143  0.000000      6.000000
  0.034807  0.040191  0.000000     12.000000
  0.052210  0.050239  0.000000     12.000000
  0.069613  0.060287  0.000000     12.000000
  0.087017  0.070335  0.000000     12.000000
  0.104420  0.080383  0.000000     12.000000
  0.034807  0.060287  0.000000      6.000000
  0.052210  0.070335  0.000000     12.000000
  0.069613  0.080383  0.000000     12.000000
  0.087017  0.090430  0.000000     12.000000
  0.104420  0.100478  0.000000      6.000000
  0.052210  0.090430  0.000000      6.000000
  0.069613  0.100478  0.000000     12.000000
  0.087017  0.110526  0.000000     12.000000
  0.069613  0.120574  0.000000      6.000000
  0.087017  0.130622  0.000000      6.000000
  0.000000  0.000000  0.027656      2.000000
  0.017403  0.010048  0.027656      6.000000
  0.034807  0.020096  0.027656      6.000000
  0.052210  0.030143  0.027656      6.000000
  0.069613  0.040191  0.027656      6.000000
  0.087017  0.050239  0.027656      6.000000
  0.104420  0.060287  0.027656      6.000000
  0.121823  0.070335  0.027656      6.000000
 -0.104420 -0.060287  0.027656      6.000000
 -0.087017 -0.050239  0.027656      6.000000
 -0.069613 -0.040191  0.027656      6.000000
 -0.052210 -0.030143  0.027656      6.000000
 -0.034807 -0.020096  0.027656      6.000000
 -0.017403 -0.010048  0.027656      6.000000
  0.017403  0.030143  0.027656     12.000000
  0.034807  0.040191  0.027656     12.000000
  0.052210  0.050239  0.027656     12.000000
  0.069613  0.060287  0.027656     12.000000
  0.087017  0.070335  0.027656     12.000000
  0.104420  0.080383  0.027656     12.000000
  0.121823  0.090430  0.027656     12.000000
 -0.104420 -0.040191  0.027656     12.000000
 -0.087017 -0.030143  0.027656     12.000000
 -0.069613 -0.020096  0.027656     12.000000
 -0.052210 -0.010048  0.027656     12.000000
  0.034807  0.060287  0.027656     12.000000
  0.052210  0.070335  0.027656     12.000000
  0.069613  0.080383  0.027656     12.000000
  0.087017  0.090430  0.027656     12.000000
  0.104420  0.100478  0.027656     12.000000
  0.121823  0.110526  0.027656     12.000000
 -0.104420 -0.020096  0.027656     12.000000
 -0.087017 -0.010048  0.027656     12.000000
  0.052210  0.090430  0.027656     12.000000
  0.069613  0.100478  0.027656     12.000000
  0.087017  0.110526  0.027656     12.000000
  0.104420  0.120574  0.027656     12.000000
  0.121823  0.130622  0.027656     12.000000
  0.069613  0.120574  0.027656     12.000000
  0.087017  0.130622  0.027656     12.000000
  0.000000  0.000000  0.055312      2.000000
  0.017403  0.010048  0.055312      6.000000
  0.034807  0.020096  0.055312      6.000000
  0.052210  0.030143  0.055312      6.000000
  0.069613  0.040191  0.055312      6.000000
  0.087017  0.050239  0.055312      6.000000
  0.104420  0.060287  0.055312      6.000000
  0.121823  0.070335  0.055312      6.000000
 -0.104420 -0.060287  0.055312      6.000000
 -0.087017 -0.050239  0.055312      6.000000
 -0.069613 -0.040191  0.055312      6.000000
 -0.052210 -0.030143  0.055312      6.000000
 -0.034807 -0.020096  0.055312      6.000000
 -0.017403 -0.010048  0.055312      6.000000
  0.017403  0.030143  0.055312     12.000000
  0.034807  0.040191  0.055312     12.000000
  0.052210  0.050239  0.055312     12.000000
  0.069613  0.060287  0.055312     12.000000
  0.087017  0.070335  0.055312     12.000000
  0.104420  0.080383  0.055312     12.000000
  0.121823  0.090430  0.055312     12.000000
 -0.104420 -0.040191  0.055312     12.000000
 -0.087017 -0.030143  0.055312     12.000000
 -0.069613 -0.020096  0.055312     12.000000
 -0.052210 -0.010048  0.055312     12.000000
  0.034807  0.060287  0.055312     12.000000
  0.052210  0.070335  0.055312     12.000000
  0.069613  0.080383  0.055312     12.000000
  0.087017  0.090430  0.055312     12.000000
  0.104420  0.100478  0.055312     12.000000
  0.121823  0.110526  0.055312     12.000000
 -0.104420 -0.020096  0.055312     12.000000
 -0.087017 -0.010048  0.055312     12.000000
  0.052210  0.090430  0.055312     12.000000
  0.069613  0.100478  0.055312     12.000000
  0.087017  0.110526  0.055312     12.000000
  0.104420  0.120574  0.055312     12.000000
  0.121823  0.130622  0.055312     12.000000
  0.069613  0.120574  0.055312     12.000000
  0.087017  0.130622  0.055312     12.000000
  0.000000  0.000000  0.082968      2.000000
  0.017403  0.010048  0.082968      6.000000
  0.034807  0.020096  0.082968      6.000000
  0.052210  0.030143  0.082968      6.000000
  0.069613  0.040191  0.082968      6.000000
  0.087017  0.050239  0.082968      6.000000
  0.104420  0.060287  0.082968      6.000000
  0.121823  0.070335  0.082968      6.000000
 -0.104420 -0.060287  0.082968      6.000000
 -0.087017 -0.050239  0.082968      6.000000
 -0.069613 -0.040191  0.082968      6.000000
 -0.052210 -0.030143  0.082968      6.000000
 -0.034807 -0.020096  0.082968      6.000000
 -0.017403 -0.010048  0.082968      6.000000
  0.017403  0.030143  0.082968     12.000000
  0.034807  0.040191  0.082968     12.000000
  0.052210  0.050239  0.082968     12.000000
  0.069613  0.060287  0.082968     12.000000
  0.087017  0.070335  0.082968     12.000000
  0.104420  0.080383  0.082968     12.000000
  0.121823  0.090430  0.082968     12.000000
 -0.104420 -0.040191  0.082968     12.000000
 -0.087017 -0.030143  0.082968     12.000000
 -0.069613 -0.020096  0.082968     12.000000
 -0.052210 -0.010048  0.082968     12.000000
  0.034807  0.060287  0.082968     12.000000
  0.052210  0.070335  0.082968     12.000000
  0.069613  0.080383  0.082968     12.000000
  0.087017  0.090430  0.082968     12.000000
  0.104420  0.100478  0.082968     12.000000
  0.121823  0.110526  0.082968     12.000000
 -0.104420 -0.020096  0.082968     12.000000
 -0.087017 -0.010048  0.082968     12.000000
  0.052210  0.090430  0.082968     12.000000
  0.069613  0.100478  0.082968     12.000000
  0.087017  0.110526  0.082968     12.000000
  0.104420  0.120574  0.082968     12.000000
  0.121823  0.130622  0.082968     12.000000
  0.069613  0.120574  0.082968     12.000000
  0.087017  0.130622  0.082968     12.000000
 


--------------------------------------------------------------------------------------------------------




 Dimension of arrays:
   k-points           NKPTS =    144   k-points in BZ     NKDIM =    144   number of bands    NBANDS=     24
   number of dos      NEDOS =    301   number of ions     NIONS =      3
   non local maximal  LDIM  =      6   non local SUM 2l+1 LMDIM =     18
   total plane-waves  NPLWV =   7776
   max r-space proj   IRMAX =      1   max aug-charges    IRDMAX=   1880
   dimension x,y,z NGX =    18 NGY =   18 NGZ =   24
   dimension x,y,z NGXF=    24 NGYF=   24 NGZF=   30
   support grid    NGXF=    24 NGYF=   24 NGZF=   30
   ions per type =               2   1
 NGX,Y,Z   is equivalent  to a cutoff of   7.29,  7.29,  7.72 a.u.
 NGXF,Y,Z  is equivalent  to a cutoff of   9.72,  9.72,  9.66 a.u.


 I would recommend the setting:
   dimension x,y,z NGX =    17 NGY =   17 NGZ =   21
 SYSTEM =  unknown system                          
 POSCAR =  Ge Sr                                   

 Startparameter for this run:
   NWRITE =      2    write-flag & timer
   PREC   = low       medium, high low
   ISTART =      0    job   : 0-new  1-cont  2-samecut
   ICHARG =      1    charge: 1-file 2-atom 10-const
   ISPIN  =      1    spin polarized calculation?
   LNONCOLLINEAR =      F non collinear calculations
   LSORBIT =      F    spin-orbit coupling
   INIWAV =      1    electr: 0-lowe 1-rand  2-diag
   LASPH  =      F    aspherical Exc in radial PAW
   METAGGA=      F    non-selfconsistent MetaGGA calc.

 Electronic Relaxation 1
   ENCUT  =  287.0 eV  21.09 Ry    4.59 a.u.   5.67  5.67  7.14*2*pi/ulx,y,z
   ENINI  =  287.0     initial cutoff
   ENAUG  =  531.4 eV  augmentation charge cutoff
   NELM   =     60;   NELMIN=  2; NELMDL=  0     # of ELM steps 
   EDIFF  = 0.1E-03   stopping-criterion for ELM
   LREAL  =      F    real-space projection
   LCOMPAT=      F    compatible to vasp.4.4
   LREAL_COMPAT= F    compatible to vasp.4.5.1-3
   GGA_COMPAT  = T    GGA compatible to vasp.4.4-vasp.4.6
   LMAXPAW     = -100 max onsite density
   LMAXMIX     =    2 max onsite mixed and CHGCAR
   VOSKOWN=      0    Vosko Wilk Nusair interpolation
   ROPT   =    0.00000   0.00000
 Ionic relaxation
   EDIFFG = 0.1E-02   stopping-criterion for IOM
   NSW    =      0    number of steps for IOM
   NBLOCK =      1;   KBLOCK =      1    inner block; outer block 
   IBRION =     -1    ionic relax: 0-MD 1-quasi-New 2-CG
   NFREE  =      0    steps in history (QN), initial steepest desc. (CG)
   ISIF   =      2    stress and relaxation
   IWAVPR =     10    prediction:  0-non 1-charg 2-wave 3-comb
   ISYM   =      2    0-nonsym 1-usesym 2-fastsym
   LCORR  =      T    Harris-Foulkes like correction to forces

   POTIM  = 0.5000    time-step for ionic-motion
   TEIN   =    0.0    initial temperature
   TEBEG  =    0.0;   TEEND  =   0.0 temperature during run
   SMASS  =  -3.00    Nose mass-parameter (am)
   estimated Nose-frequenzy (Omega)   =  0.10E-29 period in steps =****** mass=  -0.385E-27a.u.
   NPACO  =    256;   APACO  = 16.0  distance and # of slots for P.C.
   PSTRESS=    0.0 pullay stress

  Mass of Ions in am
   POMASS =  72.61 87.62
  Ionic Valenz
   ZVAL   =  14.00 10.00
  Atomic Wigner-Seitz radii
   RWIGS  =  -1.00 -1.00
   NELECT =      38.0000    total number of electrons
   NUPDOWN=      -1.0000    fix difference up-down

 DOS related values:
   EMIN   =  10.00;   EMAX   =-10.00  energy-range for DOS
   EFERMI =   0.00
   ISMEAR =     0;   SIGMA  =   0.20  broadening in eV -4-tet -1-fermi 0-gaus

 Electronic relaxation 2 (details)
   IALGO  =     68    algorithm
   LDIAG  =      T    sub-space diagonalisation
   IMIX   =      4    mixing-type and parameters
     AMIX     =   0.40;   BMIX     =  1.00
     AMIX_MAG =   1.60;   BMIX_MAG =  1.00
     AMIN     =   0.10
     WC   =   100.;   INIMIX=   1;  MIXPRE=   1

 Intra band minimization:
   WEIMIN = 0.0000     energy-eigenvalue tresh-hold
   EBREAK =  0.11E-05  absolut break condition
   DEPER  =   0.30     relativ break condition  

   TIME   =   0.40     timestep for ELM

  volume/ion in A,a.u.               =      25.12       169.51
  Fermi-wavevector in a.u.,A,eV,Ry     =   1.303054  2.462414 23.101997  1.697949
  Thomas-Fermi vector in A             =   2.434081
 
 Write flags
   LWAVE  =      F    write WAVECAR
   LCHARG =      T    write CHGCAR
   LVTOT  =      F    write LOCPOT, local potential
   LELF   =      T    write electronic localiz. function (ELF)
   LORBIT =     11    0 simple, 1 ext, 2 COOP (PROOUT)


 Dipole corrections
   LMONO  =      F    monopole corrections only (constant potential shift)
   LDIPOL =      F    correct potential (dipole corrections)
   IDIPOL =      0    1-x, 2-y, 3-z, 4-all directions 
   EPSILON=  1.0000000 bulk dielectric constant

 Exchange correlation treatment:
   GGA     =    --    GGA type
   LEXCH   =     8    internal setting for exchange type
   VOSKOWN=      0    Vosko Wilk Nusair interpolation
   LHFCALC =     F    Hartree Fock is set to
   LHFONE  =     F    Hartree Fock one center treatment
   AEXX    =    0.0000 exact exchange contribution

 Linear response parameters
   LEPSILON=     F    determine dielectric tensor
   LRPA    =     F    only Hartree local field effects (RPA)
   LNABLA  =     F    use nabla operator in PAW spheres
   LVEL    =     F    velocity operator in full k-point grid
   LINTERFAST=   F  fast interpolation
   KINTER  =     0    interpolate to denser k-point grid
   CSHIFT  =0.1000    complex shift for real part using Kramers Kronig
   OMEGAMAX=  -1.0    maximum frequency

 Orbital magnetization related:
   ORBITALMAG=     F  switch on orbital magnetization
   LCHIMAG   =     F  perturbation theory with respect to B field



--------------------------------------------------------------------------------------------------------


 Static calculation
 charge density and potential will be updated during run
 non-spin polarized calculation
 RMM-DIIS sequential band-by-band and
  variant of blocked Davidson during initial phase
 perform sub-space diagonalisation
    before iterative eigenvector-optimisation
 modified Broyden-mixing scheme, WC =      100.0
 initial mixing is a Kerker type mixing with AMIX =  0.4000 and BMIX =      1.0000
 Hartree-type preconditioning will be used
 using additional bands            5
 reciprocal scheme for non local part
 use partial core corrections
 calculate Harris-corrections to forces 
   (improved forces if not selfconsistent)
 use gradient corrections 
 use of overlap-Matrix (Vanderbilt PP)
 Gauss-broadening in eV      SIGMA  =   0.20


--------------------------------------------------------------------------------------------------------


  energy-cutoff  :      287.00
  volume of cell :       75.36
      direct lattice vectors                 reciprocal lattice vectors
     4.104300000  0.000000000  0.000000000     0.243646907  0.140669610  0.000000000
    -2.052150000  3.554428000  0.000000000     0.000000000  0.281339220  0.000000000
     0.000000000  0.000000000  5.165500000     0.000000000  0.000000000  0.193592101

  length of vectors
     4.104300000  4.104299944  5.165500000     0.281339216  0.281339220  0.193592101


 
 k-points in units of 2pi/SCALE and weight: KPOINTS created by Atomic Simulation Env
   0.00000000  0.00000000  0.00000000       0.001
   0.01740335  0.01004783  0.00000000       0.004
   0.03480670  0.02009566  0.00000000       0.004
   0.05221005  0.03014349  0.00000000       0.004
   0.06961340  0.04019132  0.00000000       0.004
   0.08701675  0.05023915  0.00000000       0.004
   0.10442010  0.06028698  0.00000000       0.004
   0.12182345  0.07033480  0.00000000       0.002
   0.01740335  0.03014349  0.00000000       0.004
   0.03480670  0.04019132  0.00000000       0.009
   0.05221005  0.05023915  0.00000000       0.009
   0.06961340  0.06028698  0.00000000       0.009
   0.08701675  0.07033480  0.00000000       0.009
   0.10442010  0.08038263  0.00000000       0.009
   0.03480670  0.06028698  0.00000000       0.004
   0.05221005  0.07033480  0.00000000       0.009
   0.06961340  0.08038263  0.00000000       0.009
   0.08701675  0.09043046  0.00000000       0.009
   0.10442010  0.10047829  0.00000000       0.004
   0.05221005  0.09043046  0.00000000       0.004
   0.06961340  0.10047829  0.00000000       0.009
   0.08701675  0.11052612  0.00000000       0.009
   0.06961340  0.12057395  0.00000000       0.004
   0.08701675  0.13062178  0.00000000       0.004
   0.00000000  0.00000000  0.02765601       0.001
   0.01740335  0.01004783  0.02765601       0.004
   0.03480670  0.02009566  0.02765601       0.004
   0.05221005  0.03014349  0.02765601       0.004
   0.06961340  0.04019132  0.02765601       0.004
   0.08701675  0.05023915  0.02765601       0.004
   0.10442010  0.06028698  0.02765601       0.004
   0.12182345  0.07033480  0.02765601       0.004
  -0.10442010 -0.06028698  0.02765601       0.004
  -0.08701675 -0.05023915  0.02765601       0.004
  -0.06961340 -0.04019132  0.02765601       0.004
  -0.05221005 -0.03014349  0.02765601       0.004
  -0.03480670 -0.02009566  0.02765601       0.004
  -0.01740335 -0.01004783  0.02765601       0.004
   0.01740335  0.03014349  0.02765601       0.009
   0.03480670  0.04019132  0.02765601       0.009
   0.05221005  0.05023915  0.02765601       0.009
   0.06961340  0.06028698  0.02765601       0.009
   0.08701675  0.07033480  0.02765601       0.009
   0.10442010  0.08038263  0.02765601       0.009
   0.12182345  0.09043046  0.02765601       0.009
  -0.10442010 -0.04019132  0.02765601       0.009
  -0.08701675 -0.03014349  0.02765601       0.009
  -0.06961340 -0.02009566  0.02765601       0.009
  -0.05221005 -0.01004783  0.02765601       0.009
   0.03480670  0.06028698  0.02765601       0.009
   0.05221005  0.07033480  0.02765601       0.009
   0.06961340  0.08038263  0.02765601       0.009
   0.08701675  0.09043046  0.02765601       0.009
   0.10442010  0.10047829  0.02765601       0.009
   0.12182345  0.11052612  0.02765601       0.009
  -0.10442010 -0.02009566  0.02765601       0.009
  -0.08701675 -0.01004783  0.02765601       0.009
   0.05221005  0.09043046  0.02765601       0.009
   0.06961340  0.10047829  0.02765601       0.009
   0.08701675  0.11052612  0.02765601       0.009
   0.10442010  0.12057395  0.02765601       0.009
   0.12182345  0.13062178  0.02765601       0.009
   0.06961340  0.12057395  0.02765601       0.009
   0.08701675  0.13062178  0.02765601       0.009
   0.00000000  0.00000000  0.05531203       0.001
   0.01740335  0.01004783  0.05531203       0.004
   0.03480670  0.02009566  0.05531203       0.004
   0.05221005  0.03014349  0.05531203       0.004
   0.06961340  0.04019132  0.05531203       0.004
   0.08701675  0.05023915  0.05531203       0.004
   0.10442010  0.06028698  0.05531203       0.004
   0.12182345  0.07033480  0.05531203       0.004
  -0.10442010 -0.06028698  0.05531203       0.004
  -0.08701675 -0.05023915  0.05531203       0.004
  -0.06961340 -0.04019132  0.05531203       0.004
  -0.05221005 -0.03014349  0.05531203       0.004
  -0.03480670 -0.02009566  0.05531203       0.004
  -0.01740335 -0.01004783  0.05531203       0.004
   0.01740335  0.03014349  0.05531203       0.009
   0.03480670  0.04019132  0.05531203       0.009
   0.05221005  0.05023915  0.05531203       0.009
   0.06961340  0.06028698  0.05531203       0.009
   0.08701675  0.07033480  0.05531203       0.009
   0.10442010  0.08038263  0.05531203       0.009
   0.12182345  0.09043046  0.05531203       0.009
  -0.10442010 -0.04019132  0.05531203       0.009
  -0.08701675 -0.03014349  0.05531203       0.009
  -0.06961340 -0.02009566  0.05531203       0.009
  -0.05221005 -0.01004783  0.05531203       0.009
   0.03480670  0.06028698  0.05531203       0.009
   0.05221005  0.07033480  0.05531203       0.009
   0.06961340  0.08038263  0.05531203       0.009
   0.08701675  0.09043046  0.05531203       0.009
   0.10442010  0.10047829  0.05531203       0.009
   0.12182345  0.11052612  0.05531203       0.009
  -0.10442010 -0.02009566  0.05531203       0.009
  -0.08701675 -0.01004783  0.05531203       0.009
   0.05221005  0.09043046  0.05531203       0.009
   0.06961340  0.10047829  0.05531203       0.009
   0.08701675  0.11052612  0.05531203       0.009
   0.10442010  0.12057395  0.05531203       0.009
   0.12182345  0.13062178  0.05531203       0.009
   0.06961340  0.12057395  0.05531203       0.009
   0.08701675  0.13062178  0.05531203       0.009
   0.00000000  0.00000000  0.08296804       0.001
   0.01740335  0.01004783  0.08296804       0.004
   0.03480670  0.02009566  0.08296804       0.004
   0.05221005  0.03014349  0.08296804       0.004
   0.06961340  0.04019132  0.08296804       0.004
   0.08701675  0.05023915  0.08296804       0.004
   0.10442010  0.06028698  0.08296804       0.004
   0.12182345  0.07033480  0.08296804       0.004
  -0.10442010 -0.06028698  0.08296804       0.004
  -0.08701675 -0.05023915  0.08296804       0.004
  -0.06961340 -0.04019132  0.08296804       0.004
  -0.05221005 -0.03014349  0.08296804       0.004
  -0.03480670 -0.02009566  0.08296804       0.004
  -0.01740335 -0.01004783  0.08296804       0.004
   0.01740335  0.03014349  0.08296804       0.009
   0.03480670  0.04019132  0.08296804       0.009
   0.05221005  0.05023915  0.08296804       0.009
   0.06961340  0.06028698  0.08296804       0.009
   0.08701675  0.07033480  0.08296804       0.009
   0.10442010  0.08038263  0.08296804       0.009
   0.12182345  0.09043046  0.08296804       0.009
  -0.10442010 -0.04019132  0.08296804       0.009
  -0.08701675 -0.03014349  0.08296804       0.009
  -0.06961340 -0.02009566  0.08296804       0.009
  -0.05221005 -0.01004783  0.08296804       0.009
   0.03480670  0.06028698  0.08296804       0.009
   0.05221005  0.07033480  0.08296804       0.009
   0.06961340  0.08038263  0.08296804       0.009
   0.08701675  0.09043046  0.08296804       0.009
   0.10442010  0.10047829  0.08296804       0.009
   0.12182345  0.11052612  0.08296804       0.009
  -0.10442010 -0.02009566  0.08296804       0.009
  -0.08701675 -0.01004783  0.08296804       0.009
   0.05221005  0.09043046  0.08296804       0.009
   0.06961340  0.10047829  0.08296804       0.009
   0.08701675  0.11052612  0.08296804       0.009
   0.10442010  0.12057395  0.08296804       0.009
   0.12182345  0.13062178  0.08296804       0.009
   0.06961340  0.12057395  0.08296804       0.009
   0.08701675  0.13062178  0.08296804       0.009
 
 k-points in reciprocal lattice and weights: KPOINTS created by Atomic Simulation Env
   0.00000000  0.00000000  0.00000000       0.001
   0.07142857  0.00000000  0.00000000       0.004
   0.14285714  0.00000000  0.00000000       0.004
   0.21428571  0.00000000  0.00000000       0.004
   0.28571429  0.00000000  0.00000000       0.004
   0.35714286  0.00000000  0.00000000       0.004
   0.42857143  0.00000000  0.00000000       0.004
   0.50000000  0.00000000  0.00000000       0.002
   0.07142857  0.07142857  0.00000000       0.004
   0.14285714  0.07142857  0.00000000       0.009
   0.21428571  0.07142857  0.00000000       0.009
   0.28571429  0.07142857  0.00000000       0.009
   0.35714286  0.07142857  0.00000000       0.009
   0.42857143  0.07142857  0.00000000       0.009
   0.14285714  0.14285714  0.00000000       0.004
   0.21428571  0.14285714  0.00000000       0.009
   0.28571429  0.14285714  0.00000000       0.009
   0.35714286  0.14285714  0.00000000       0.009
   0.42857143  0.14285714  0.00000000       0.004
   0.21428571  0.21428571  0.00000000       0.004
   0.28571429  0.21428571  0.00000000       0.009
   0.35714286  0.21428571  0.00000000       0.009
   0.28571429  0.28571429  0.00000000       0.004
   0.35714286  0.28571429  0.00000000       0.004
   0.00000000  0.00000000  0.14285714       0.001
   0.07142857  0.00000000  0.14285714       0.004
   0.14285714  0.00000000  0.14285714       0.004
   0.21428571  0.00000000  0.14285714       0.004
   0.28571429  0.00000000  0.14285714       0.004
   0.35714286  0.00000000  0.14285714       0.004
   0.42857143  0.00000000  0.14285714       0.004
   0.50000000  0.00000000  0.14285714       0.004
  -0.42857143  0.00000000  0.14285714       0.004
  -0.35714286  0.00000000  0.14285714       0.004
  -0.28571429  0.00000000  0.14285714       0.004
  -0.21428571  0.00000000  0.14285714       0.004
  -0.14285714  0.00000000  0.14285714       0.004
  -0.07142857  0.00000000  0.14285714       0.004
   0.07142857  0.07142857  0.14285714       0.009
   0.14285714  0.07142857  0.14285714       0.009
   0.21428571  0.07142857  0.14285714       0.009
   0.28571429  0.07142857  0.14285714       0.009
   0.35714286  0.07142857  0.14285714       0.009
   0.42857143  0.07142857  0.14285714       0.009
   0.50000000  0.07142857  0.14285714       0.009
  -0.42857143  0.07142857  0.14285714       0.009
  -0.35714286  0.07142857  0.14285714       0.009
  -0.28571429  0.07142857  0.14285714       0.009
  -0.21428571  0.07142857  0.14285714       0.009
   0.14285714  0.14285714  0.14285714       0.009
   0.21428571  0.14285714  0.14285714       0.009
   0.28571429  0.14285714  0.14285714       0.009
   0.35714286  0.14285714  0.14285714       0.009
   0.42857143  0.14285714  0.14285714       0.009
   0.50000000  0.14285714  0.14285714       0.009
  -0.42857143  0.14285714  0.14285714       0.009
  -0.35714286  0.14285714  0.14285714       0.009
   0.21428571  0.21428571  0.14285714       0.009
   0.28571429  0.21428571  0.14285714       0.009
   0.35714286  0.21428571  0.14285714       0.009
   0.42857143  0.21428571  0.14285714       0.009
   0.50000000  0.21428571  0.14285714       0.009
   0.28571429  0.28571429  0.14285714       0.009
   0.35714286  0.28571429  0.14285714       0.009
   0.00000000  0.00000000  0.28571429       0.001
   0.07142857  0.00000000  0.28571429       0.004
   0.14285714  0.00000000  0.28571429       0.004
   0.21428571  0.00000000  0.28571429       0.004
   0.28571429  0.00000000  0.28571429       0.004
   0.35714286  0.00000000  0.28571429       0.004
   0.42857143  0.00000000  0.28571429       0.004
   0.50000000  0.00000000  0.28571429       0.004
  -0.42857143  0.00000000  0.28571429       0.004
  -0.35714286  0.00000000  0.28571429       0.004
  -0.28571429  0.00000000  0.28571429       0.004
  -0.21428571  0.00000000  0.28571429       0.004
  -0.14285714  0.00000000  0.28571429       0.004
  -0.07142857  0.00000000  0.28571429       0.004
   0.07142857  0.07142857  0.28571429       0.009
   0.14285714  0.07142857  0.28571429       0.009
   0.21428571  0.07142857  0.28571429       0.009
   0.28571429  0.07142857  0.28571429       0.009
   0.35714286  0.07142857  0.28571429       0.009
   0.42857143  0.07142857  0.28571429       0.009
   0.50000000  0.07142857  0.28571429       0.009
  -0.42857143  0.07142857  0.28571429       0.009
  -0.35714286  0.07142857  0.28571429       0.009
  -0.28571429  0.07142857  0.28571429       0.009
  -0.21428571  0.07142857  0.28571429       0.009
   0.14285714  0.14285714  0.28571429       0.009
   0.21428571  0.14285714  0.28571429       0.009
   0.28571429  0.14285714  0.28571429       0.009
   0.35714286  0.14285714  0.28571429       0.009
   0.42857143  0.14285714  0.28571429       0.009
   0.50000000  0.14285714  0.28571429       0.009
  -0.42857143  0.14285714  0.28571429       0.009
  -0.35714286  0.14285714  0.28571429       0.009
   0.21428571  0.21428571  0.28571429       0.009
   0.28571429  0.21428571  0.28571429       0.009
   0.35714286  0.21428571  0.28571429       0.009
   0.42857143  0.21428571  0.28571429       0.009
   0.50000000  0.21428571  0.28571429       0.009
   0.28571429  0.28571429  0.28571429       0.009
   0.35714286  0.28571429  0.28571429       0.009
   0.00000000  0.00000000  0.42857143       0.001
   0.07142857  0.00000000  0.42857143       0.004
   0.14285714  0.00000000  0.42857143       0.004
   0.21428571  0.00000000  0.42857143       0.004
   0.28571429  0.00000000  0.42857143       0.004
   0.35714286  0.00000000  0.42857143       0.004
   0.42857143  0.00000000  0.42857143       0.004
   0.50000000  0.00000000  0.42857143       0.004
  -0.42857143  0.00000000  0.42857143       0.004
  -0.35714286  0.00000000  0.42857143       0.004
  -0.28571429  0.00000000  0.42857143       0.004
  -0.21428571  0.00000000  0.42857143       0.004
  -0.14285714  0.00000000  0.42857143       0.004
  -0.07142857  0.00000000  0.42857143       0.004
   0.07142857  0.07142857  0.42857143       0.009
   0.14285714  0.07142857  0.42857143       0.009
   0.21428571  0.07142857  0.42857143       0.009
   0.28571429  0.07142857  0.42857143       0.009
   0.35714286  0.07142857  0.42857143       0.009
   0.42857143  0.07142857  0.42857143       0.009
   0.50000000  0.07142857  0.42857143       0.009
  -0.42857143  0.07142857  0.42857143       0.009
  -0.35714286  0.07142857  0.42857143       0.009
  -0.28571429  0.07142857  0.42857143       0.009
  -0.21428571  0.07142857  0.42857143       0.009
   0.14285714  0.14285714  0.42857143       0.009
   0.21428571  0.14285714  0.42857143       0.009
   0.28571429  0.14285714  0.42857143       0.009
   0.35714286  0.14285714  0.42857143       0.009
   0.42857143  0.14285714  0.42857143       0.009
   0.50000000  0.14285714  0.42857143       0.009
  -0.42857143  0.14285714  0.42857143       0.009
  -0.35714286  0.14285714  0.42857143       0.009
   0.21428571  0.21428571  0.42857143       0.009
   0.28571429  0.21428571  0.42857143       0.009
   0.35714286  0.21428571  0.42857143       0.009
   0.42857143  0.21428571  0.42857143       0.009
   0.50000000  0.21428571  0.42857143       0.009
   0.28571429  0.28571429  0.42857143       0.009
   0.35714286  0.28571429  0.42857143       0.009
 
 position of ions in fractional coordinates (direct lattice) 
   0.33333300  0.66666700  0.40600000
   0.66666700  0.33333300  0.59400000
   0.00000000  0.00000000  0.00000000
 
 position of ions in cartesian coordinates  (Angst):
  -0.00000205  2.36961985  2.09719300
   2.05215205  1.18480815  3.06830700
   0.00000000  0.00000000  0.00000000
 


--------------------------------------------------------------------------------------------------------


 k-point  1 :  0.00000.00000.0000  plane waves:     843
 k-point  2 :  0.07140.00000.0000  plane waves:     827
 k-point  3 :  0.14290.00000.0000  plane waves:     826
 k-point  4 :  0.21430.00000.0000  plane waves:     832
 k-point  5 :  0.28570.00000.0000  plane waves:     828
 k-point  6 :  0.35710.00000.0000  plane waves:     840
 k-point  7 :  0.42860.00000.0000  plane waves:     838
 k-point  8 :  0.50000.00000.0000  plane waves:     840
 k-point  9 :  0.07140.07140.0000  plane waves:     827
 k-point 10 :  0.14290.07140.0000  plane waves:     831
 k-point 11 :  0.21430.07140.0000  plane waves:     829
 k-point 12 :  0.28570.07140.0000  plane waves:     830
 k-point 13 :  0.35710.07140.0000  plane waves:     833
 k-point 14 :  0.42860.07140.0000  plane waves:     836
 k-point 15 :  0.14290.14290.0000  plane waves:     827
 k-point 16 :  0.21430.14290.0000  plane waves:     828
 k-point 17 :  0.28570.14290.0000  plane waves:     823
 k-point 18 :  0.35710.14290.0000  plane waves:     836
 k-point 19 :  0.42860.14290.0000  plane waves:     834
 k-point 20 :  0.21430.21430.0000  plane waves:     824
 k-point 21 :  0.28570.21430.0000  plane waves:     831
 k-point 22 :  0.35710.21430.0000  plane waves:     829
 k-point 23 :  0.28570.28570.0000  plane waves:     830
 k-point 24 :  0.35710.28570.0000  plane waves:     820
 k-point 25 :  0.00000.00000.1429  plane waves:     824
 k-point 26 :  0.07140.00000.1429  plane waves:     831
 k-point 27 :  0.14290.00000.1429  plane waves:     834
 k-point 28 :  0.21430.00000.1429  plane waves:     832
 k-point 29 :  0.28570.00000.1429  plane waves:     833
 k-point 30 :  0.35710.00000.1429  plane waves:     834
 k-point 31 :  0.42860.00000.1429  plane waves:     832
 k-point 32 :  0.50000.00000.1429  plane waves:     834
 k-point 33 :  -.42860.00000.1429  plane waves:     832
 k-point 34 :  -.35710.00000.1429  plane waves:     834
 k-point 35 :  -.28570.00000.1429  plane waves:     833
 k-point 36 :  -.21430.00000.1429  plane waves:     832
 k-point 37 :  -.14290.00000.1429  plane waves:     834
 k-point 38 :  -.07140.00000.1429  plane waves:     831
 k-point 39 :  0.07140.07140.1429  plane waves:     831
 k-point 40 :  0.14290.07140.1429  plane waves:     826
 k-point 41 :  0.21430.07140.1429  plane waves:     833
 k-point 42 :  0.28570.07140.1429  plane waves:     833
 k-point 43 :  0.35710.07140.1429  plane waves:     831
 k-point 44 :  0.42860.07140.1429  plane waves:     836
 k-point 45 :  0.50000.07140.1429  plane waves:     836
 k-point 46 :  -.42860.07140.1429  plane waves:     831
 k-point 47 :  -.35710.07140.1429  plane waves:     833
 k-point 48 :  -.28570.07140.1429  plane waves:     833
 k-point 49 :  -.21430.07140.1429  plane waves:     826
 k-point 50 :  0.14290.14290.1429  plane waves:     834
 k-point 51 :  0.21430.14290.1429  plane waves:     832
 k-point 52 :  0.28570.14290.1429  plane waves:     829
 k-point 53 :  0.35710.14290.1429  plane waves:     828
 k-point 54 :  0.42860.14290.1429  plane waves:     834
 k-point 55 :  0.50000.14290.1429  plane waves:     828
 k-point 56 :  -.42860.14290.1429  plane waves:     829
 k-point 57 :  -.35710.14290.1429  plane waves:     832
 k-point 58 :  0.21430.21430.1429  plane waves:     831
 k-point 59 :  0.28570.21430.1429  plane waves:     827
 k-point 60 :  0.35710.21430.1429  plane waves:     828
 k-point 61 :  0.42860.21430.1429  plane waves:     828
 k-point 62 :  0.50000.21430.1429  plane waves:     827
 k-point 63 :  0.28570.28570.1429  plane waves:     825
 k-point 64 :  0.35710.28570.1429  plane waves:     815
 k-point 65 :  0.00000.00000.2857  plane waves:     824
 k-point 66 :  0.07140.00000.2857  plane waves:     833
 k-point 67 :  0.14290.00000.2857  plane waves:     836
 k-point 68 :  0.21430.00000.2857  plane waves:     840
 k-point 69 :  0.28570.00000.2857  plane waves:     835
 k-point 70 :  0.35710.00000.2857  plane waves:     834
 k-point 71 :  0.42860.00000.2857  plane waves:     833
 k-point 72 :  0.50000.00000.2857  plane waves:     834
 k-point 73 :  -.42860.00000.2857  plane waves:     833
 k-point 74 :  -.35710.00000.2857  plane waves:     834
 k-point 75 :  -.28570.00000.2857  plane waves:     835
 k-point 76 :  -.21430.00000.2857  plane waves:     840
 k-point 77 :  -.14290.00000.2857  plane waves:     836
 k-point 78 :  -.07140.00000.2857  plane waves:     833
 k-point 79 :  0.07140.07140.2857  plane waves:     833
 k-point 80 :  0.14290.07140.2857  plane waves:     837
 k-point 81 :  0.21430.07140.2857  plane waves:     837
 k-point 82 :  0.28570.07140.2857  plane waves:     832
 k-point 83 :  0.35710.07140.2857  plane waves:     833
 k-point 84 :  0.42860.07140.2857  plane waves:     831
 k-point 85 :  0.50000.07140.2857  plane waves:     831
 k-point 86 :  -.42860.07140.2857  plane waves:     833
 k-point 87 :  -.35710.07140.2857  plane waves:     832
 k-point 88 :  -.28570.07140.2857  plane waves:     837
 k-point 89 :  -.21430.07140.2857  plane waves:     837
 k-point 90 :  0.14290.14290.2857  plane waves:     835
 k-point 91 :  0.21430.14290.2857  plane waves:     831
 k-point 92 :  0.28570.14290.2857  plane waves:     828
 k-point 93 :  0.35710.14290.2857  plane waves:     831
 k-point 94 :  0.42860.14290.2857  plane waves:     833
 k-point 95 :  0.50000.14290.2857  plane waves:     831
 k-point 96 :  -.42860.14290.2857  plane waves:     828
 k-point 97 :  -.35710.14290.2857  plane waves:     831
 k-point 98 :  0.21430.21430.2857  plane waves:     830
 k-point 99 :  0.28570.21430.2857  plane waves:     831
 k-point ** :  0.35710.21430.2857  plane waves:     831
 k-point ** :  0.42860.21430.2857  plane waves:     831
 k-point ** :  0.50000.21430.2857  plane waves:     831
 k-point ** :  0.28570.28570.2857  plane waves:     828
 k-point ** :  0.35710.28570.2857  plane waves:     829
 k-point ** :  0.00000.00000.4286  plane waves:     836
 k-point ** :  0.07140.00000.4286  plane waves:     841
 k-point ** :  0.14290.00000.4286  plane waves:     843
 k-point ** :  0.21430.00000.4286  plane waves:     843
 k-point ** :  0.28570.00000.4286  plane waves:     833
 k-point ** :  0.35710.00000.4286  plane waves:     826
 k-point ** :  0.42860.00000.4286  plane waves:     834
 k-point ** :  0.50000.00000.4286  plane waves:     828
 k-point ** :  -.42860.00000.4286  plane waves:     834
 k-point ** :  -.35710.00000.4286  plane waves:     826
 k-point ** :  -.28570.00000.4286  plane waves:     833
 k-point ** :  -.21430.00000.4286  plane waves:     843
 k-point ** :  -.14290.00000.4286  plane waves:     843
 k-point ** :  -.07140.00000.4286  plane waves:     841
 k-point ** :  0.07140.07140.4286  plane waves:     848
 k-point ** :  0.14290.07140.4286  plane waves:     844
 k-point ** :  0.21430.07140.4286  plane waves:     838
 k-point ** :  0.28570.07140.4286  plane waves:     828
 k-point ** :  0.35710.07140.4286  plane waves:     833
 k-point ** :  0.42860.07140.4286  plane waves:     831
 k-point ** :  0.50000.07140.4286  plane waves:     831
 k-point ** :  -.42860.07140.4286  plane waves:     833
 k-point ** :  -.35710.07140.4286  plane waves:     828
 k-point ** :  -.28570.07140.4286  plane waves:     838
 k-point ** :  -.21430.07140.4286  plane waves:     844
 k-point ** :  0.14290.14290.4286  plane waves:     841
 k-point ** :  0.21430.14290.4286  plane waves:     838
 k-point ** :  0.28570.14290.4286  plane waves:     826
 k-point ** :  0.35710.14290.4286  plane waves:     829
 k-point ** :  0.42860.14290.4286  plane waves:     828
 k-point ** :  0.50000.14290.4286  plane waves:     829
 k-point ** :  -.42860.14290.4286  plane waves:     826
 k-point ** :  -.35710.14290.4286  plane waves:     838
 k-point ** :  0.21430.21430.4286  plane waves:     829
 k-point ** :  0.28570.21430.4286  plane waves:     833
 k-point ** :  0.35710.21430.4286  plane waves:     824
 k-point ** :  0.42860.21430.4286  plane waves:     824
 k-point ** :  0.50000.21430.4286  plane waves:     833
 k-point ** :  0.28570.28570.4286  plane waves:     834
 k-point ** :  0.35710.28570.4286  plane waves:     830

 maximum and minimum number of plane-waves per node :     218    198

 maximum number of plane-waves:     848
 maximal index in each direction: 
   IXMAX=  6   IYMAX=  5   IZMAX=  7
   IXMIN= -6   IYMIN= -5   IZMIN= -7

 WARNING: aliasing errors must be expected set NGX to  26 to avoid them
 WARNING: aliasing errors must be expected set NGY to  22 to avoid them
 WARNING: aliasing errors must be expected set NGZ to  30 to avoid them
 aliasing errors are usually negligible using standard VASP settings
 and one can safely disregard these warnings

 parallel 3D FFT for wavefunctions:
    minimum data exchange during FFTs selected (reduces bandwidth)
 parallel 3D FFT for charge:
    minimum data exchange during FFTs selected (reduces bandwidth)


 total amount of memory used by VASP on root node  45645. kBytes
========================================================================

   base      :    30000. kBytes
   nonl-proj :     8719. kBytes
   fftplans  :      152. kBytes
   grid      :      456. kBytes
   one-center:       15. kBytes
   wavefun   :     6303. kBytes
 
 Broyden mixing: mesh for mixing (old mesh)
   NGX = 11   NGY = 11   NGZ = 15
  (NGX  = 24   NGY  = 24   NGZ  = 30)
  gives a total of   1815 points

 initial charge density was supplied:
 charge density of overlapping atoms calculated
 number of electron   38.0000000 magnetization 
 keeping initial charge density in first step


--------------------------------------------------------------------------------------------------------


 Maximum index for augmentation-charges          147 (set IRDMAX)


--------------------------------------------------------------------------------------------------------


 First call to EWALD:  gamma=   0.420
 Maximum number of real-space cells 3x 3x 2
 Maximum number of reciprocal cells 3x 3x 3

    FEWALD:  cpu time    0.00: real time    0.00
   RESPFUN:  cpu time    0.00: real time    0.00


----------------------------------------- Iteration    1(   1)  ---------------------------------------


    POTLOK:  cpu time    0.00: real time    0.00
    SETDIJ:  cpu time    0.00: real time    0.00
     EDDAV:  cpu time    2.13: real time    2.14
       DOS:  cpu time    0.01: real time    0.01
    --------------------------------------------
      LOOP:  cpu time    2.14: real time    2.19

 eigenvalue-minimisations  :  8542
 total energy-change (2. order) : 0.4377111E+03  (-0.1076288E+04)
 number of electron   38.0000000 magnetization 
 augmentation part    38.0000000 magnetization 

 Free energy of the ion-electron system (eV)
  ---------------------------------------------------
  alpha Z        PSCENC =       245.64725995
  Ewald energy   TEWEN  =     -3274.49630721
  -1/2 Hartree   DENC   =     -1775.02425393
  -exchange  EXHF       =         0.00000000
  -V(xc)+E(xc)   XCENC  =       182.09304974
  PAW double counting   =      3744.93815827    -4585.83741732
  entropy T*S    EENTRO =        -0.00886786
  eigenvalues    EBANDS =      -134.84929623
  atomic energy  EATOM  =      6035.24873054
  ---------------------------------------------------
  free energy    TOTEN  =       437.71105597 eV

  energy without entropy =      437.71992383  energy(sigma->0) =      437.71548990


--------------------------------------------------------------------------------------------------------




----------------------------------------- Iteration    1(   2)  ---------------------------------------


     EDDAV:  cpu time    1.84: real time    1.84
       DOS:  cpu time    0.01: real time    0.01
    --------------------------------------------
      LOOP:  cpu time    1.85: real time    1.85

 eigenvalue-minimisations  :  7030
 total energy-change (2. order) :-0.3651060E+03  (-0.3450451E+03)
 number of electron   38.0000000 magnetization 
 augmentation part    38.0000000 magnetization 

 Free energy of the ion-electron system (eV)
  ---------------------------------------------------
  alpha Z        PSCENC =       245.64725995
  Ewald energy   TEWEN  =     -3274.49630721
  -1/2 Hartree   DENC   =     -1775.02425393
  -exchange  EXHF       =         0.00000000
  -V(xc)+E(xc)   XCENC  =       182.09304974
  PAW double counting   =      3744.93815827    -4585.83741732
  entropy T*S    EENTRO =        -0.01750258
  eigenvalues    EBANDS =      -499.94668760
  atomic energy  EATOM  =      6035.24873054
  ---------------------------------------------------
  free energy    TOTEN  =        72.60502988 eV

  energy without entropy =       72.62253246  energy(sigma->0) =       72.61378117


--------------------------------------------------------------------------------------------------------




----------------------------------------- Iteration    1(   3)  ---------------------------------------


     EDDAV:  cpu time    1.91: real time    1.91
       DOS:  cpu time    0.01: real time    0.01
    --------------------------------------------
      LOOP:  cpu time    1.92: real time    1.92

 eigenvalue-minimisations  :  7412
 total energy-change (2. order) :-0.7731099E+02  (-0.7398165E+02)
 number of electron   38.0000000 magnetization 
 augmentation part    38.0000000 magnetization 

 Free energy of the ion-electron system (eV)
  ---------------------------------------------------
  alpha Z        PSCENC =       245.64725995
  Ewald energy   TEWEN  =     -3274.49630721
  -1/2 Hartree   DENC   =     -1775.02425393
  -exchange  EXHF       =         0.00000000
  -V(xc)+E(xc)   XCENC  =       182.09304974
  PAW double counting   =      3744.93815827    -4585.83741732
  entropy T*S    EENTRO =        -0.00648727
  eigenvalues    EBANDS =      -577.26869709
  atomic energy  EATOM  =      6035.24873054
  ---------------------------------------------------
  free energy    TOTEN  =        -4.70596430 eV

  energy without entropy =       -4.69947703  energy(sigma->0) =       -4.70272067


--------------------------------------------------------------------------------------------------------




----------------------------------------- Iteration    1(   4)  ---------------------------------------


     EDDAV:  cpu time    2.15: real time    2.15
       DOS:  cpu time    0.01: real time    0.01
    --------------------------------------------
      LOOP:  cpu time    2.16: real time    2.16

 eigenvalue-minimisations  :  8678
 total energy-change (2. order) :-0.7345780E+01  (-0.7175863E+01)
 number of electron   38.0000000 magnetization 
 augmentation part    38.0000000 magnetization 

 Free energy of the ion-electron system (eV)
  ---------------------------------------------------
  alpha Z        PSCENC =       245.64725995
  Ewald energy   TEWEN  =     -3274.49630721
  -1/2 Hartree   DENC   =     -1775.02425393
  -exchange  EXHF       =         0.00000000
  -V(xc)+E(xc)   XCENC  =       182.09304974
  PAW double counting   =      3744.93815827    -4585.83741732
  entropy T*S    EENTRO =        -0.00572910
  eigenvalues    EBANDS =      -584.61523491
  atomic energy  EATOM  =      6035.24873054
  ---------------------------------------------------
  free energy    TOTEN  =       -12.05174395 eV

  energy without entropy =      -12.04601485  energy(sigma->0) =      -12.04887940


--------------------------------------------------------------------------------------------------------




----------------------------------------- Iteration    1(   5)  ---------------------------------------


     EDDAV:  cpu time    2.55: real time    2.55
       DOS:  cpu time    0.01: real time    0.01
    CHARGE:  cpu time    0.13: real time    0.13
    MIXING:  cpu time    0.00: real time    0.00
    --------------------------------------------
      LOOP:  cpu time    2.69: real time    2.69

 eigenvalue-minimisations  : 10852
 total energy-change (2. order) :-0.4515487E+00  (-0.4488184E+00)
 number of electron   37.9995285 magnetization 
 augmentation part    17.6545705 magnetization 

 Broyden mixing:
  rms(total) = 0.35654E+00    rms(broyden)= 0.35591E+00
  rms(prec ) = 0.60908E+00
  weight for this iteration     100.00

 Free energy of the ion-electron system (eV)
  ---------------------------------------------------
  alpha Z        PSCENC =       245.64725995
  Ewald energy   TEWEN  =     -3274.49630721
  -1/2 Hartree   DENC   =     -1775.02425393
  -exchange  EXHF       =         0.00000000
  -V(xc)+E(xc)   XCENC  =       182.09304974
  PAW double counting   =      3744.93815827    -4585.83741732
  entropy T*S    EENTRO =        -0.00587562
  eigenvalues    EBANDS =      -585.06663709
  atomic energy  EATOM  =      6035.24873054
  ---------------------------------------------------
  free energy    TOTEN  =       -12.50329265 eV

  energy without entropy =      -12.49741703  energy(sigma->0) =      -12.50035484


--------------------------------------------------------------------------------------------------------




----------------------------------------- Iteration    1(   6)  ---------------------------------------


    POTLOK:  cpu time    0.00: real time    0.00
    SETDIJ:  cpu time    0.00: real time    0.00
    EDDIAG:  cpu time    0.42: real time    0.42
  RMM-DIIS:  cpu time    1.71: real time    1.72
    ORTHCH:  cpu time    0.05: real time    0.05
       DOS:  cpu time    0.01: real time    0.01
    CHARGE:  cpu time    0.12: real time    0.13
    MIXING:  cpu time    0.00: real time    0.00
    --------------------------------------------
      LOOP:  cpu time    2.33: real time    2.33

 eigenvalue-minimisations  : 10218
 total energy-change (2. order) : 0.8071470E-01  (-0.2124874E-01)
 number of electron   37.9995281 magnetization 
 augmentation part    17.6552767 magnetization 

 Broyden mixing:
  rms(total) = 0.21076E+00    rms(broyden)= 0.21074E+00
  rms(prec ) = 0.35919E+00
  weight for this iteration     100.00

 eigenvalues of (default mixing * dielectric matrix)
  average eigenvalue GAMMA=   2.4264
  2.4264

 Free energy of the ion-electron system (eV)
  ---------------------------------------------------
  alpha Z        PSCENC =       245.64725995
  Ewald energy   TEWEN  =     -3274.49630721
  -1/2 Hartree   DENC   =     -1771.47995265
  -exchange  EXHF       =         0.00000000
  -V(xc)+E(xc)   XCENC  =       181.81221979
  PAW double counting   =      3797.37882208    -4642.52810794
  entropy T*S    EENTRO =        -0.00655442
  eigenvalues    EBANDS =      -583.99868810
  atomic energy  EATOM  =      6035.24873054
  ---------------------------------------------------
  free energy    TOTEN  =       -12.42257795 eV

  energy without entropy =      -12.41602354  energy(sigma->0) =      -12.41930074


--------------------------------------------------------------------------------------------------------




----------------------------------------- Iteration    1(   7)  ---------------------------------------


    POTLOK:  cpu time    0.00: real time    0.00
    SETDIJ:  cpu time    0.00: real time    0.00
    EDDIAG:  cpu time    0.42: real time    0.42
  RMM-DIIS:  cpu time    1.77: real time    1.77
    ORTHCH:  cpu time    0.05: real time    0.05
       DOS:  cpu time    0.01: real time    0.01
    CHARGE:  cpu time    0.13: real time    0.13
    MIXING:  cpu time    0.00: real time    0.00
    --------------------------------------------
      LOOP:  cpu time    2.38: real time    2.38

 eigenvalue-minimisations  : 10272
 total energy-change (2. order) : 0.3209938E-01  (-0.2393837E-01)
 number of electron   37.9995276 magnetization 
 augmentation part    17.6533994 magnetization 

 Broyden mixing:
  rms(total) = 0.20069E-01    rms(broyden)= 0.19998E-01
  rms(prec ) = 0.34001E-01
  weight for this iteration     100.00

 eigenvalues of (default mixing * dielectric matrix)
  average eigenvalue GAMMA=   2.3855
  2.3855  2.3855

 Free energy of the ion-electron system (eV)
  ---------------------------------------------------
  alpha Z        PSCENC =       245.64725995
  Ewald energy   TEWEN  =     -3274.49630721
  -1/2 Hartree   DENC   =     -1766.11960918
  -exchange  EXHF       =         0.00000000
  -V(xc)+E(xc)   XCENC  =       181.44642630
  PAW double counting   =      3871.36991495    -4722.25367051
  entropy T*S    EENTRO =        -0.00740775
  eigenvalues    EBANDS =      -583.22581568
  atomic energy  EATOM  =      6035.24873054
  ---------------------------------------------------
  free energy    TOTEN  =       -12.39047857 eV

  energy without entropy =      -12.38307082  energy(sigma->0) =      -12.38677469


--------------------------------------------------------------------------------------------------------




----------------------------------------- Iteration    1(   8)  ---------------------------------------


    POTLOK:  cpu time    0.00: real time    0.00
    SETDIJ:  cpu time    0.00: real time    0.00
    EDDIAG:  cpu time    0.42: real time    0.42
  RMM-DIIS:  cpu time    2.11: real time    2.11
    ORTHCH:  cpu time    0.05: real time    0.05
       DOS:  cpu time    0.01: real time    0.01
    CHARGE:  cpu time    0.13: real time    0.13
    MIXING:  cpu time    0.00: real time    0.00
    --------------------------------------------
      LOOP:  cpu time    2.73: real time    2.73

 eigenvalue-minimisations  : 12542
 total energy-change (2. order) :-0.3128657E-03  (-0.3543141E-02)
 number of electron   37.9995276 magnetization 
 augmentation part    17.6432945 magnetization 

 Broyden mixing:
  rms(total) = 0.65983E-02    rms(broyden)= 0.65641E-02
  rms(prec ) = 0.12394E-01
  weight for this iteration     100.00

 eigenvalues of (default mixing * dielectric matrix)
  average eigenvalue GAMMA=   1.9276
  0.9675  2.4077  2.4077

 Free energy of the ion-electron system (eV)
  ---------------------------------------------------
  alpha Z        PSCENC =       245.64725995
  Ewald energy   TEWEN  =     -3274.49630721
  -1/2 Hartree   DENC   =     -1765.80046211
  -exchange  EXHF       =         0.00000000
  -V(xc)+E(xc)   XCENC  =       181.45213492
  PAW double counting   =      3869.06601657    -4720.09962790
  entropy T*S    EENTRO =        -0.00721429
  eigenvalues    EBANDS =      -583.40132192
  atomic energy  EATOM  =      6035.24873054
  ---------------------------------------------------
  free energy    TOTEN  =       -12.39079144 eV

  energy without entropy =      -12.38357715  energy(sigma->0) =      -12.38718429


--------------------------------------------------------------------------------------------------------




----------------------------------------- Iteration    1(   9)  ---------------------------------------


    POTLOK:  cpu time    0.00: real time    0.00
    SETDIJ:  cpu time    0.00: real time    0.00
    EDDIAG:  cpu time    0.42: real time    0.42
  RMM-DIIS:  cpu time    1.91: real time    1.91
    ORTHCH:  cpu time    0.05: real time    0.05
       DOS:  cpu time    0.01: real time    0.01
    CHARGE:  cpu time    0.13: real time    0.13
    MIXING:  cpu time    0.00: real time    0.00
    --------------------------------------------
      LOOP:  cpu time    2.52: real time    2.52

 eigenvalue-minimisations  : 11131
 total energy-change (2. order) :-0.1153069E-02  (-0.1359377E-02)
 number of electron   37.9995276 magnetization 
 augmentation part    17.6378710 magnetization 

 Broyden mixing:
  rms(total) = 0.58220E-02    rms(broyden)= 0.58109E-02
  rms(prec ) = 0.10094E-01
  weight for this iteration     100.00

 eigenvalues of (default mixing * dielectric matrix)
  average eigenvalue GAMMA=   2.3491
  1.0610  3.1218  3.1218  2.0916

 Free energy of the ion-electron system (eV)
  ---------------------------------------------------
  alpha Z        PSCENC =       245.64725995
  Ewald energy   TEWEN  =     -3274.49630721
  -1/2 Hartree   DENC   =     -1765.72863985
  -exchange  EXHF       =         0.00000000
  -V(xc)+E(xc)   XCENC  =       181.45478755
  PAW double counting   =      3869.34158476    -4720.35622747
  entropy T*S    EENTRO =        -0.00721540
  eigenvalues    EBANDS =      -583.49591739
  atomic energy  EATOM  =      6035.24873054
  ---------------------------------------------------
  free energy    TOTEN  =       -12.39194450 eV

  energy without entropy =      -12.38472911  energy(sigma->0) =      -12.38833681


--------------------------------------------------------------------------------------------------------




----------------------------------------- Iteration    1(  10)  ---------------------------------------


    POTLOK:  cpu time    0.00: real time    0.00
    SETDIJ:  cpu time    0.00: real time    0.00
    EDDIAG:  cpu time    0.42: real time    0.42
  RMM-DIIS:  cpu time    1.86: real time    1.86
    ORTHCH:  cpu time    0.05: real time    0.05
       DOS:  cpu time    0.01: real time    0.01
    CHARGE:  cpu time    0.13: real time    0.13
    MIXING:  cpu time    0.00: real time    0.00
    --------------------------------------------
      LOOP:  cpu time    2.47: real time    2.47

 eigenvalue-minimisations  : 10829
 total energy-change (2. order) :-0.6510505E-03  (-0.7439380E-03)
 number of electron   37.9995277 magnetization 
 augmentation part    17.6350499 magnetization 

 Broyden mixing:
  rms(total) = 0.34076E-02    rms(broyden)= 0.34021E-02
  rms(prec ) = 0.66722E-02
  weight for this iteration     100.00

 eigenvalues of (default mixing * dielectric matrix)
  average eigenvalue GAMMA=   1.8967
  2.7174  1.0346  2.1483  1.7916  1.7916

 Free energy of the ion-electron system (eV)
  ---------------------------------------------------
  alpha Z        PSCENC =       245.64725995
  Ewald energy   TEWEN  =     -3274.49630721
  -1/2 Hartree   DENC   =     -1765.77576246
  -exchange  EXHF       =         0.00000000
  -V(xc)+E(xc)   XCENC  =       181.46602426
  PAW double counting   =      3869.95213280    -4720.78439034
  entropy T*S    EENTRO =        -0.00724391
  eigenvalues    EBANDS =      -583.64303918
  atomic energy  EATOM  =      6035.24873054
  ---------------------------------------------------
  free energy    TOTEN  =       -12.39259556 eV

  energy without entropy =      -12.38535164  energy(sigma->0) =      -12.38897360


--------------------------------------------------------------------------------------------------------




----------------------------------------- Iteration    1(  11)  ---------------------------------------


    POTLOK:  cpu time    0.00: real time    0.00
    SETDIJ:  cpu time    0.00: real time    0.00
    EDDIAG:  cpu time    0.42: real time    0.42
  RMM-DIIS:  cpu time    1.79: real time    1.79
    ORTHCH:  cpu time    0.05: real time    0.05
       DOS:  cpu time    0.01: real time    0.01
    CHARGE:  cpu time    0.13: real time    0.13
    MIXING:  cpu time    0.00: real time    0.00
    --------------------------------------------
      LOOP:  cpu time    2.40: real time    2.40

 eigenvalue-minimisations  : 10479
 total energy-change (2. order) :-0.3760446E-03  (-0.4751766E-03)
 number of electron   37.9995277 magnetization 
 augmentation part    17.6335239 magnetization 

 Broyden mixing:
  rms(total) = 0.36642E-02    rms(broyden)= 0.36601E-02
  rms(prec ) = 0.54458E-02
  weight for this iteration     100.00

 eigenvalues of (default mixing * dielectric matrix)
  average eigenvalue GAMMA=   1.9527
  2.5847  2.5847  2.6542  2.1929  0.9916  0.7082

 Free energy of the ion-electron system (eV)
  ---------------------------------------------------
  alpha Z        PSCENC =       245.64725995
  Ewald energy   TEWEN  =     -3274.49630721
  -1/2 Hartree   DENC   =     -1765.72862198
  -exchange  EXHF       =         0.00000000
  -V(xc)+E(xc)   XCENC  =       181.45895051
  PAW double counting   =      3870.67062813    -4721.68912756
  entropy T*S    EENTRO =        -0.00722805
  eigenvalues    EBANDS =      -583.49725592
  atomic energy  EATOM  =      6035.24873054
  ---------------------------------------------------
  free energy    TOTEN  =       -12.39297160 eV

  energy without entropy =      -12.38574355  energy(sigma->0) =      -12.38935757


--------------------------------------------------------------------------------------------------------




----------------------------------------- Iteration    1(  12)  ---------------------------------------


    POTLOK:  cpu time    0.00: real time    0.00
    SETDIJ:  cpu time    0.00: real time    0.00
    EDDIAG:  cpu time    0.42: real time    0.42
  RMM-DIIS:  cpu time    1.59: real time    1.63
    ORTHCH:  cpu time    0.05: real time    0.05
       DOS:  cpu time    0.01: real time    0.01
    CHARGE:  cpu time    0.13: real time    0.13
    MIXING:  cpu time    0.00: real time    0.00
    --------------------------------------------
      LOOP:  cpu time    2.20: real time    2.31

 eigenvalue-minimisations  :  9425
 total energy-change (2. order) :-0.2331149E-03  (-0.2759749E-03)
 number of electron   37.9995277 magnetization 
 augmentation part    17.6323750 magnetization 

 Broyden mixing:
  rms(total) = 0.21536E-02    rms(broyden)= 0.21500E-02
  rms(prec ) = 0.34575E-02
  weight for this iteration     100.00

 eigenvalues of (default mixing * dielectric matrix)
  average eigenvalue GAMMA=   1.8707
  3.0295  3.0295  1.9742  1.9742  1.0494  1.0191  1.0191

 Free energy of the ion-electron system (eV)
  ---------------------------------------------------
  alpha Z        PSCENC =       245.64725995
  Ewald energy   TEWEN  =     -3274.49630721
  -1/2 Hartree   DENC   =     -1765.79068141
  -exchange  EXHF       =         0.00000000
  -V(xc)+E(xc)   XCENC  =       181.46194691
  PAW double counting   =      3870.73521525    -4721.71875231
  entropy T*S    EENTRO =        -0.00722811
  eigenvalues    EBANDS =      -583.47338834
  atomic energy  EATOM  =      6035.24873054
  ---------------------------------------------------
  free energy    TOTEN  =       -12.39320471 eV

  energy without entropy =      -12.38597660  energy(sigma->0) =      -12.38959066


--------------------------------------------------------------------------------------------------------




----------------------------------------- Iteration    1(  13)  ---------------------------------------


    POTLOK:  cpu time    0.00: real time    0.00
    SETDIJ:  cpu time    0.00: real time    0.00
    EDDIAG:  cpu time    0.42: real time    0.42
  RMM-DIIS:  cpu time    1.60: real time    1.60
    ORTHCH:  cpu time    0.05: real time    0.05
       DOS:  cpu time    0.01: real time    0.01
    CHARGE:  cpu time    0.13: real time    0.13
    MIXING:  cpu time    0.00: real time    0.00
    --------------------------------------------
      LOOP:  cpu time    2.22: real time    2.22

 eigenvalue-minimisations  :  9225
 total energy-change (2. order) :-0.1494719E-03  (-0.1751160E-03)
 number of electron   37.9995277 magnetization 
 augmentation part    17.6313189 magnetization 

 Broyden mixing:
  rms(total) = 0.13855E-02    rms(broyden)= 0.13812E-02
  rms(prec ) = 0.20414E-02
  weight for this iteration     100.00

 eigenvalues of (default mixing * dielectric matrix)
  average eigenvalue GAMMA=   1.9599
  3.9304  3.0488  2.1809  2.1809  1.3354  1.3354  0.9702  0.6972

 Free energy of the ion-electron system (eV)
  ---------------------------------------------------
  alpha Z        PSCENC =       245.64725995
  Ewald energy   TEWEN  =     -3274.49630721
  -1/2 Hartree   DENC   =     -1765.79217339
  -exchange  EXHF       =         0.00000000
  -V(xc)+E(xc)   XCENC  =       181.46347489
  PAW double counting   =      3870.62157656    -4721.56775644
  entropy T*S    EENTRO =        -0.00723154
  eigenvalues    EBANDS =      -583.51092756
  atomic energy  EATOM  =      6035.24873054
  ---------------------------------------------------
  free energy    TOTEN  =       -12.39335419 eV

  energy without entropy =      -12.38612265  energy(sigma->0) =      -12.38973842


--------------------------------------------------------------------------------------------------------




----------------------------------------- Iteration    1(  14)  ---------------------------------------


    POTLOK:  cpu time    0.00: real time    0.00
    SETDIJ:  cpu time    0.00: real time    0.00
    EDDIAG:  cpu time    0.42: real time    0.42
  RMM-DIIS:  cpu time    1.52: real time    1.52
    ORTHCH:  cpu time    0.05: real time    0.05
       DOS:  cpu time    0.01: real time    0.01
    CHARGE:  cpu time    0.13: real time    0.13
    MIXING:  cpu time    0.00: real time    0.00
    --------------------------------------------
      LOOP:  cpu time    2.13: real time    2.13

 eigenvalue-minimisations  :  8732
 total energy-change (2. order) :-0.1011082E-03  (-0.1154312E-03)
 number of electron   37.9995277 magnetization 
 augmentation part    17.6307706 magnetization 

 Broyden mixing:
  rms(total) = 0.59170E-03    rms(broyden)= 0.58344E-03
  rms(prec ) = 0.84958E-03
  weight for this iteration     100.00

 eigenvalues of (default mixing * dielectric matrix)
  average eigenvalue GAMMA=   1.8690
  3.8216  2.9869  2.3349  2.0864  1.4656  1.2467  1.2467  0.8162  0.8162

 Free energy of the ion-electron system (eV)
  ---------------------------------------------------
  alpha Z        PSCENC =       245.64725995
  Ewald energy   TEWEN  =     -3274.49630721
  -1/2 Hartree   DENC   =     -1765.79038278
  -exchange  EXHF       =         0.00000000
  -V(xc)+E(xc)   XCENC  =       181.46410143
  PAW double counting   =      3870.57450318    -4721.48874412
  entropy T*S    EENTRO =        -0.00723384
  eigenvalues    EBANDS =      -583.54538247
  atomic energy  EATOM  =      6035.24873054
  ---------------------------------------------------
  free energy    TOTEN  =       -12.39345529 eV

  energy without entropy =      -12.38622146  energy(sigma->0) =      -12.38983838


--------------------------------------------------------------------------------------------------------




----------------------------------------- Iteration    1(  15)  ---------------------------------------


    POTLOK:  cpu time    0.00: real time    0.00
    SETDIJ:  cpu time    0.00: real time    0.00
    EDDIAG:  cpu time    0.42: real time    0.42
  RMM-DIIS:  cpu time    1.45: real time    1.45
    ORTHCH:  cpu time    0.05: real time    0.05
       DOS:  cpu time    0.01: real time    0.01
    --------------------------------------------
      LOOP:  cpu time    1.94: real time    1.95

 eigenvalue-minimisations  :  8182
 total energy-change (2. order) :-0.6616458E-04  (-0.7575748E-04)
 number of electron   37.9995277 magnetization 
 augmentation part    17.6307706 magnetization 

 Free energy of the ion-electron system (eV)
  ---------------------------------------------------
  alpha Z        PSCENC =       245.64725995
  Ewald energy   TEWEN  =     -3274.49630721
  -1/2 Hartree   DENC   =     -1765.79535095
  -exchange  EXHF       =         0.00000000
  -V(xc)+E(xc)   XCENC  =       181.46440792
  PAW double counting   =      3870.60515147    -4721.51693906
[...]

 k-point 134 :       0.4286    0.1429    0.4286
  band No.  band energies     occupation 
      1     -32.0893      2.00000
      2     -21.1986      2.00000
      3     -21.1391      2.00000
      4     -21.0965      2.00000
      5     -21.0874      2.00000
      6     -21.0606      2.00000
      7     -21.0331      2.00000
      8     -21.0281      2.00000
      9     -20.9798      2.00000
     10     -20.9686      2.00000
     11     -20.9554      2.00000
     12     -14.3498      2.00000
     13     -14.2990      2.00000
     14     -14.1878      2.00000
     15      -5.9150      2.00000
     16      -4.3560      2.00000
     17       0.0483      2.00000
     18       0.9310      2.00000
     19       1.2890      2.00000
     20       5.1155      0.00000
     21       5.7754      0.00000
     22       6.4853      0.00000
     23       7.1790      0.00000
     24       9.0662      0.00000

 k-point 135 :       0.5000    0.1429    0.4286
  band No.  band energies     occupation 
      1     -32.0901      2.00000
      2     -21.1981      2.00000
      3     -21.1435      2.00000
      4     -21.0915      2.00000
      5     -21.0877      2.00000
      6     -21.0652      2.00000
      7     -21.0326      2.00000
      8     -21.0247      2.00000
      9     -20.9816      2.00000
     10     -20.9673      2.00000
     11     -20.9554      2.00000
     12     -14.3399      2.00000
     13     -14.3036      2.00000
     14     -14.1831      2.00000
     15      -6.1183      2.00000
     16      -4.0693      2.00000
     17       0.0342      2.00000
     18       0.6784      2.00000
     19       1.5504      2.00000
     20       5.2154      0.00000
     21       5.8419      0.00000
     22       6.5461      0.00000
     23       7.2097      0.00000
     24       8.5332      0.00000

 k-point 136 :      -0.4286    0.1429    0.4286
  band No.  band energies     occupation 
      1     -32.0924      2.00000
      2     -21.1966      2.00000
      3     -21.1526      2.00000
      4     -21.0901      2.00000
      5     -21.0811      2.00000
      6     -21.0727      2.00000
      7     -21.0338      2.00000
      8     -21.0163      2.00000
      9     -20.9851      2.00000
     10     -20.9646      2.00000
     11     -20.9555      2.00000
     12     -14.3175      2.00000
     13     -14.3105      2.00000
     14     -14.1704      2.00000
     15      -6.4926      2.00000
     16      -3.4990      2.00000
     17      -0.0459      2.00000
     18       0.4963      2.00000
     19       2.0101      2.00000
     20       5.2237      0.00000
     21       6.0216      0.00000
     22       6.6127      0.00000
     23       7.1383      0.00000
     24       7.9071      0.00000

 k-point 137 :      -0.3571    0.1429    0.4286
  band No.  band energies     occupation 
      1     -32.0956      2.00000
      2     -21.1945      2.00000
      3     -21.1623      2.00000
      4     -21.0941      2.00000
      5     -21.0866      2.00000
      6     -21.0631      2.00000
      7     -21.0353      2.00000
      8     -21.0074      2.00000
      9     -20.9887      2.00000
     10     -20.9624      2.00000
     11     -20.9563      2.00000
     12     -14.3337      2.00000
     13     -14.2713      2.00000
     14     -14.1524      2.00000
     15      -6.8559      2.00000
     16      -2.9111      2.00000
     17      -0.2189      2.00000
     18       0.6983      2.00000
     19       2.5089      2.00000
     20       5.0816      0.00000
     21       6.1464      0.00000
     22       6.5675      0.00000
     23       7.0638      0.00000
     24       7.1965      0.00000

 k-point 138 :       0.2143    0.2143    0.4286
  band No.  band energies     occupation 
      1     -32.0926      2.00000
      2     -21.1982      2.00000
      3     -21.1512      2.00000
      4     -21.0869      2.00000
      5     -21.0824      2.00000
      6     -21.0734      2.00000
      7     -21.0370      2.00000
      8     -21.0149      2.00000
      9     -20.9858      2.00000
     10     -20.9642      2.00000
     11     -20.9546      2.00000
     12     -14.3178      2.00000
     13     -14.2992      2.00000
     14     -14.1794      2.00000
     15      -6.5158      2.00000
     16      -3.4591      2.00000
     17       0.0367      2.00000
     18       0.2861      2.00000
     19       2.2235      2.00000
     20       5.4077      0.00000
     21       5.9689      0.00000
     22       6.5250      0.00000
     23       7.1035      0.00000
     24       7.4668      0.00000

 k-point 139 :       0.2857    0.2143    0.4286
  band No.  band energies     occupation 
      1     -32.0901      2.00000
      2     -21.2011      2.00000
      3     -21.1398      2.00000
      4     -21.0902      2.00000
      5     -21.0808      2.00000
      6     -21.0713      2.00000
      7     -21.0377      2.00000
      8     -21.0253      2.00000
      9     -20.9816      2.00000
     10     -20.9666      2.00000
     11     -20.9537      2.00000
     12     -14.3194      2.00000
     13     -14.3035      2.00000
     14     -14.2047      2.00000
     15      -6.1189      2.00000
     16      -4.0426      2.00000
     17      -0.0862      2.00000
     18       0.5003      2.00000
     19       1.8851      2.00000
     20       5.3088      0.00000
     21       6.0093      0.00000
     22       6.5417      0.00000
     23       7.1235      0.00000
     24       7.8985      0.00000

 k-point 140 :       0.3571    0.2143    0.4286
  band No.  band energies     occupation 
      1     -32.0888      2.00000
      2     -21.2025      2.00000
      3     -21.1301      2.00000
      4     -21.0988      2.00000
      5     -21.0805      2.00000
      6     -21.0622      2.00000
      7     -21.0381      2.00000
      8     -21.0344      2.00000
      9     -20.9778      2.00000
     10     -20.9689      2.00000
     11     -20.9533      2.00000
     12     -14.3280      2.00000
     13     -14.2964      2.00000
     14     -14.2203      2.00000
     15      -5.7612      2.00000
     16      -4.5025      2.00000
     17      -0.2432      2.00000
     18       0.9037      2.00000
     19       1.5168      2.00000
     20       5.1683      0.00000
     21       6.0555      0.00000
     22       6.5426      0.00000
     23       7.2385      0.00000
     24       8.2418      0.00000

 k-point 141 :       0.4286    0.2143    0.4286
  band No.  band energies     occupation 
      1     -32.0888      2.00000
      2     -21.2025      2.00000
      3     -21.1301      2.00000
      4     -21.0989      2.00000
      5     -21.0804      2.00000
      6     -21.0621      2.00000
      7     -21.0380      2.00000
      8     -21.0347      2.00000
      9     -20.9779      2.00000
     10     -20.9690      2.00000
     11     -20.9532      2.00000
     12     -14.3277      2.00000
     13     -14.2967      2.00000
     14     -14.2202      2.00000
     15      -5.7680      2.00000
     16      -4.4889      2.00000
     17      -0.2606      2.00000
     18       0.9528      2.00000
     19       1.4468      2.00000
     20       5.2576      0.00000
     21       5.9881      0.00000
     22       6.5471      0.00000
     23       7.3317      0.00000
     24       8.3764      0.00000

 k-point 142 :       0.5000    0.2143    0.4286
  band No.  band energies     occupation 
      1     -32.0901      2.00000
      2     -21.2012      2.00000
      3     -21.1398      2.00000
      4     -21.0903      2.00000
      5     -21.0807      2.00000
      6     -21.0710      2.00000
      7     -21.0376      2.00000
      8     -21.0254      2.00000
      9     -20.9817      2.00000
     10     -20.9667      2.00000
     11     -20.9537      2.00000
     12     -14.3186      2.00000
     13     -14.3045      2.00000
     14     -14.2047      2.00000
     15      -6.1253      2.00000
     16      -4.0226      2.00000
     17      -0.1328      2.00000
     18       0.5449      2.00000
     19       1.8171      2.00000
     20       5.5068      0.00000
     21       5.8361      0.00000
     22       6.5840      0.00000
     23       7.3629      0.00000
     24       7.8323      0.00000

 k-point 143 :       0.2857    0.2857    0.4286
  band No.  band energies     occupation 
      1     -32.0886      2.00000
      2     -21.2040      2.00000
      3     -21.1267      2.00000
      4     -21.0998      2.00000
      5     -21.0733      2.00000
      6     -21.0679      2.00000
      7     -21.0403      2.00000
      8     -21.0367      2.00000
      9     -20.9772      2.00000
     10     -20.9691      2.00000
     11     -20.9526      2.00000
     12     -14.3117      2.00000
     13     -14.2963      2.00000
     14     -14.2399      2.00000
     15      -5.7035      2.00000
     16      -4.5492      2.00000
     17      -0.3642      2.00000
     18       0.9018      2.00000
     19       1.5983      2.00000
     20       5.0863      0.00000
     21       6.2726      0.00000
     22       6.5718      0.00000
     23       7.6699      0.00000
     24       7.8086      0.00000

 k-point 144 :       0.3571    0.2857    0.4286
  band No.  band energies     occupation 
      1     -32.0880      2.00000
      2     -21.2049      2.00000
      3     -21.1185      2.00000
      4     -21.1067      2.00000
      5     -21.0715      2.00000
      6     -21.0629      2.00000
      7     -21.0439      2.00000
      8     -21.0411      2.00000
      9     -20.9744      2.00000
     10     -20.9710      2.00000
     11     -20.9521      2.00000
     12     -14.3023      2.00000
     13     -14.2929      2.00000
     14     -14.2598      2.00000
     15      -5.3942      2.00000
     16      -4.8938      2.00000
     17      -0.4536      2.00000
     18       1.1791      2.00000
     19       1.3851      2.00000
     20       4.9386      0.00000
     21       6.4104      0.00000
     22       6.5524      0.00000
     23       7.7322      0.00000
     24       8.2381      0.00000


--------------------------------------------------------------------------------------------------------


 soft charge-density along one line, spin component           1
         0         1         2         3         4         5         6         7         8         9
 total charge-density along one line
 
 pseudopotential strength for first ion, spin component:           1
-23.684   0.000   0.000   0.002   0.000  18.775   0.000   0.000
  0.000 -23.658   0.000   0.000   0.002   0.000  18.751   0.000
  0.000   0.000 -23.648   0.000   0.000   0.000   0.000  18.741
  0.002   0.000   0.000 -23.658   0.000  -0.001   0.000   0.000
  0.000   0.002   0.000   0.000 -23.684   0.000  -0.001   0.000
 18.775   0.000   0.000  -0.001   0.000 -13.795   0.000   0.000
  0.000  18.751   0.000   0.000  -0.001   0.000 -13.774   0.000
  0.000   0.000  18.741   0.000   0.000   0.000   0.000 -13.765
 -0.001   0.000   0.000  18.751   0.000   0.001   0.000   0.000
  0.000  -0.001   0.000   0.000  18.775   0.000   0.001   0.000
  0.000   0.000   0.002   0.000   0.000   0.000   0.000  -0.005
  0.000   0.000   0.000   0.000   0.000   0.000   0.000   0.000
  0.000   0.008   0.000   0.000   0.000   0.000  -0.002   0.000
  0.000   0.000   0.009   0.000   0.000   0.000   0.000  -0.002
  0.000   0.000   0.000   0.008   0.000   0.000   0.000   0.000
  0.000  -0.002   0.000   0.000   0.000   0.000   0.002   0.000
  0.000   0.000  -0.002   0.000   0.000   0.000   0.000   0.002
  0.000   0.000   0.000  -0.002   0.000   0.000   0.000   0.000
 total augmentation occupancy for first ion, spin component:           1
  2.055   0.000   0.000  -0.016   0.000   0.059   0.000   0.000  -0.018   0.000   0.000   0.000   0.000   0.000  -0.103   0.000
  0.000   2.043   0.000   0.000  -0.016   0.000   0.047   0.000   0.000  -0.018   0.000   0.000   0.081   0.000   0.000  -0.018
  0.000   0.000   2.033   0.000   0.000   0.000   0.000   0.037   0.000   0.000  -0.014   0.026   0.000  -0.039   0.000   0.000
 -0.016   0.000   0.000   2.043   0.000  -0.018   0.000   0.000   0.047   0.000   0.000   0.000   0.000   0.000   0.081   0.000
  0.000  -0.016   0.000   0.000   2.055   0.000  -0.018   0.000   0.000   0.059   0.000   0.000  -0.103   0.000   0.000   0.041
  0.059   0.000   0.000  -0.018   0.000   0.061   0.000   0.000  -0.019   0.000   0.000   0.000   0.000   0.000  -0.133   0.000
  0.000   0.047   0.000   0.000  -0.018   0.000   0.049   0.000   0.000  -0.019   0.000   0.000   0.100   0.000   0.000  -0.040
  0.000   0.000   0.037   0.000   0.000   0.000   0.000   0.040   0.000   0.000  -0.017   0.032   0.000  -0.056   0.000   0.000
 -0.018   0.000   0.000   0.047   0.000  -0.019   0.000   0.000   0.049   0.000   0.000   0.000   0.000   0.000   0.100   0.000
  0.000  -0.018   0.000   0.000   0.059   0.000  -0.019   0.000   0.000   0.061   0.000   0.000  -0.133   0.000   0.000   0.044
  0.000   0.000  -0.014   0.000   0.000   0.000   0.000  -0.017   0.000   0.000   1.719  -0.234   0.000  -0.167   0.000   0.000
  0.000   0.000   0.026   0.000   0.000   0.000   0.000   0.032   0.000   0.000  -0.234   0.165   0.000  -0.145   0.000   0.000
  0.000   0.081   0.000   0.000  -0.103   0.000   0.100   0.000   0.000  -0.133   0.000   0.000   0.973   0.000   0.000  -0.274
  0.000   0.000  -0.039   0.000   0.000   0.000   0.000  -0.056   0.000   0.000  -0.167  -0.145   0.000   1.078   0.000   0.000
 -0.103   0.000   0.000   0.081   0.000  -0.133   0.000   0.000   0.100   0.000   0.000   0.000   0.000   0.000   0.973   0.000
  0.000  -0.018   0.000   0.000   0.041   0.000  -0.040   0.000   0.000   0.044   0.000   0.000  -0.274   0.000   0.000   0.098
  0.000   0.000   0.029   0.000   0.000   0.000   0.000   0.007   0.000   0.000   0.051   0.047   0.000  -0.245   0.000   0.000
  0.041   0.000   0.000  -0.018   0.000   0.044   0.000   0.000  -0.040   0.000   0.000   0.000   0.000   0.000  -0.274   0.000


------------------------ aborting loop because EDIFF is reached ----------------------------------------


 


 total charge     
 
# of ion     s       p       d       tot
----------------------------------------
  1        1.157   1.197   9.990  12.345
  2        1.157   1.197   9.990  12.345
  3        2.017   5.749   0.252   8.018
------------------------------------------------
tot        4.332   8.144  20.232  32.708
 


--------------------------------------------------------------------------------------------------------



  FREE ENERGIE OF THE ION-ELECTRON SYSTEM (eV)
  ---------------------------------------------------
  free  energy   TOTEN  =       -12.393521 eV

  energy  without entropy=      -12.386287  energy(sigma->0) =      -12.389904
 
    CHARGE:  cpu time    0.13: real time    0.13
    FORLOC:  cpu time    0.00: real time    0.00
    FORNL :  cpu time    0.45: real time    0.46
    STRESS:  cpu time    0.61: real time    0.61
    FORCOR:  cpu time    0.00: real time    0.00
    FORHAR:  cpu time    0.00: real time    0.00
    MIXING:  cpu time    0.00: real time    0.00

  FORCE on cell =-STRESS in cart. coord.  units (eV):
  Direction    XX          YY          ZZ          XY          YZ          ZX
  --------------------------------------------------------------------------------------
  Alpha Z   245.64726   245.64726   245.64726
  Ewald    -905.88771  -905.88543 -1462.72651     0.00196     0.00049    -0.00082
  Hartree   743.35836   743.35942   279.08221     0.00092     0.00024    -0.00040
  E(xc)    -202.89924  -202.89922  -202.98349     0.00002     0.00001    -0.00001
  Local      30.57249    30.55096  1047.61445    -0.01868    -0.00086     0.00112
  n-local   -59.18943   -59.92571   -59.05836     0.74036    -0.57964    -0.01270
  augment  -115.35003  -115.33546  -114.14136     0.01268    -0.00013     0.00042
  Kinetic   262.99577   267.34335   267.02499    -4.63554     0.53226    -0.17625
  Fock        0.00000     0.00000     0.00000     0.00000     0.00000     0.00000
  -------------------------------------------------------------------------------------
  Total       1.05132     1.05132     0.45919     0.00000     0.00000     0.00000
  in kB      22.35245    22.35245     9.76304     0.00000     0.00000     0.00000
  external pressure =       18.16 kB  Pullay stress =        0.00 kB


 VOLUME and BASIS-vectors are now :
 -----------------------------------------------------------------------------
  energy-cutoff  :      287.00
  volume of cell :       75.36
      direct lattice vectors                 reciprocal lattice vectors
     4.104300000  0.000000000  0.000000000     0.243646907  0.140669610  0.000000000
    -2.052150000  3.554428000  0.000000000     0.000000000  0.281339220  0.000000000
     0.000000000  0.000000000  5.165500000     0.000000000  0.000000000  0.193592101

  length of vectors
     4.104300000  4.104299944  5.165500000     0.281339216  0.281339220  0.193592101


 FORCES acting on ions
    electron-ion (+dipol)            ewald-force                    non-local-force                 convergence-correction
 -----------------------------------------------------------------------------------------------
   -.585E-04 -.326E-03 0.197E+03   0.129E-02 -.756E-03 -.209E+03   -.347E-17 0.000E+00 0.126E+02   0.156E-06 -.899E-07 -.101E-02
   0.585E-04 0.326E-03 -.197E+03   -.129E-02 0.756E-03 0.209E+03   -.520E-17 0.000E+00 -.126E+02   -.156E-06 0.899E-07 0.101E-02
   -.982E-14 -.704E-14 -.838E-13   -.683E-14 -.698E-14 0.000E+00   0.000E+00 0.000E+00 0.000E+00   -.365E-13 -.553E-13 -.505E-14
 -----------------------------------------------------------------------------------------------
   0.191E-11 0.112E-13 0.108E-10   -.124E-14 0.765E-14 0.284E-13   -.867E-17 0.000E+00 -.178E-14   -.294E-12 -.516E-12 0.347E-12
 
 
 POSITION                                       TOTAL-FORCE (eV/Angst)
 -----------------------------------------------------------------------------------
      0.00000      2.36962      2.09719         0.000000      0.000000     -0.040978
      2.05215      1.18481      3.06831         0.000000      0.000000      0.040978
      0.00000      0.00000      0.00000         0.000000      0.000000      0.000000
 -----------------------------------------------------------------------------------
    total drift:                                0.000000      0.000000      0.000000


--------------------------------------------------------------------------------------------------------


    POTLOK:  cpu time    0.01: real time    0.01


--------------------------------------------------------------------------------------------------------


     LOOP+:  cpu time   35.33: real time   35.61
    4ORBIT:  cpu time    0.00: real time    0.00
 


 total charge     
 
# of ion     s       p       d       tot
----------------------------------------
  1        1.157   1.197   9.990  12.345
  2        1.157   1.197   9.990  12.345
  3        2.017   5.749   0.252   8.018
------------------------------------------------
tot        4.332   8.144  20.232  32.708
 

 total amount of memory used by VASP on root node  45645. kBytes
========================================================================

   base      :    30000. kBytes
   nonl-proj :     8719. kBytes
   fftplans  :      152. kBytes
   grid      :      456. kBytes
   one-center:       15. kBytes
   wavefun   :     6303. kBytes
 
  
  
 General timing and accounting informations for this job:
 ========================================================
  
                  Total CPU time used (sec):       36.955
                            User time (sec):       36.657
                          System time (sec):        0.298
                         Elapsed time (sec):       39.258
  
                   Maximum memory used (kb):           0.
                   Average memory used (kb):           0.
  
                          Minor page faults:        11599
                          Major page faults:            0
                 Voluntary context switches:         2794
