  16  16   1   0
  0.1503998E+02  0.5745000E-09  0.5745000E-09  0.7291000E-09  0.5000000E-15
 1.00000000000000005E-4
  CAR 
 unknown system                          
     23.06637088    -14.71023841  301      9.03054236      1.00000000
    -14.710  0.0000E+00  0.0000E+00  0.0000E+00  0.0000E+00
    -14.584  0.0000E+00  0.0000E+00  0.0000E+00  0.0000E+00
    -14.458  0.0000E+00  0.0000E+00  0.0000E+00  0.0000E+00
    -14.332  0.0000E+00  0.0000E+00  0.0000E+00  0.0000E+00
    -14.207  0.0000E+00  0.0000E+00  0.0000E+00  0.0000E+00
    -14.081  0.0000E+00  0.0000E+00  0.0000E+00  0.0000E+00
    -13.955  0.0000E+00  0.0000E+00  0.0000E+00  0.0000E+00
    -13.829  0.7744E-14  0.9497E-14  0.9752E-15  0.1196E-14
    -13.703  0.9146E-11  0.1078E-10  0.1153E-11  0.1359E-11
    -13.577  0.4760E-08  0.5471E-08  0.6005E-09  0.6902E-09
    -13.451  0.1156E-05  0.1297E-05  0.1461E-06  0.1640E-06
    -13.325  0.1315E-03  0.1445E-03  0.1671E-04  0.1835E-04
    -13.199  0.7063E-02  0.7604E-02  0.9061E-03  0.9759E-03
    -13.073  0.1802E+00  0.1906E+00  0.2360E-01  0.2497E-01
    -12.947  0.2203E+01  0.2293E+01  0.3010E+00  0.3137E+00
    -12.821  0.1303E+02  0.1336E+02  0.1941E+01  0.1996E+01
    -12.695  0.3757E+02  0.3804E+02  0.6672E+01  0.6786E+01
    -12.570  0.5324E+02  0.5324E+02  0.1338E+02  0.1349E+02
    -12.444  0.3728E+02  0.3681E+02  0.1807E+02  0.1812E+02
    -12.318  0.1292E+02  0.1258E+02  0.1970E+02  0.1971E+02
    -12.192  0.2213E+01  0.2124E+01  0.1998E+02  0.1998E+02
    -12.066  0.1866E+00  0.1761E+00  0.2000E+02  0.2000E+02
    -11.940  0.7699E-02  0.7121E-02  0.2000E+02  0.2000E+02
    -11.814  0.1540E-03  0.1393E-03  0.2000E+02  0.2000E+02
    -11.688  0.1482E-05  0.1308E-05  0.2000E+02  0.2000E+02
    -11.562  0.6790E-08  0.5838E-08  0.2000E+02  0.2000E+02
    -11.436  0.1471E-10  0.1230E-10  0.2000E+02  0.2000E+02
    -11.310  0.1352E-13  0.1059E-13  0.2000E+02  0.2000E+02
    -11.184  0.0000E+00  0.0000E+00  0.2000E+02  0.2000E+02
    -11.058  0.0000E+00  0.0000E+00  0.2000E+02  0.2000E+02
    -10.933  0.0000E+00  0.0000E+00  0.2000E+02  0.2000E+02
    -10.807  0.0000E+00  0.0000E+00  0.2000E+02  0.2000E+02
    -10.681  0.0000E+00  0.0000E+00  0.2000E+02  0.2000E+02
    -10.555  0.0000E+00  0.0000E+00  0.2000E+02  0.2000E+02
    -10.429  0.0000E+00  0.0000E+00  0.2000E+02  0.2000E+02
    -10.303  0.0000E+00  0.0000E+00  0.2000E+02  0.2000E+02
    -10.177  0.0000E+00  0.0000E+00  0.2000E+02  0.2000E+02
    -10.051  0.0000E+00  0.0000E+00  0.2000E+02  0.2000E+02
     -9.925  0.0000E+00  0.0000E+00  0.2000E+02  0.2000E+02
     -9.799  0.0000E+00  0.0000E+00  0.2000E+02  0.2000E+02
     -9.673  0.0000E+00  0.0000E+00  0.2000E+02  0.2000E+02
     -9.547  0.0000E+00  0.0000E+00  0.2000E+02  0.2000E+02
     -9.422  0.0000E+00  0.0000E+00  0.2000E+02  0.2000E+02
     -9.296  0.0000E+00  0.0000E+00  0.2000E+02  0.2000E+02
     -9.170  0.0000E+00  0.0000E+00  0.2000E+02  0.2000E+02
     -9.044  0.0000E+00  0.0000E+00  0.2000E+02  0.2000E+02
     -8.918  0.0000E+00  0.0000E+00  0.2000E+02  0.2000E+02
     -8.792  0.0000E+00  0.0000E+00  0.2000E+02  0.2000E+02
     -8.666  0.0000E+00  0.0000E+00  0.2000E+02  0.2000E+02
     -8.540  0.0000E+00  0.0000E+00  0.2000E+02  0.2000E+02
     -8.414  0.0000E+00  0.0000E+00  0.2000E+02  0.2000E+02
     -8.288  0.0000E+00  0.0000E+00  0.2000E+02  0.2000E+02
     -8.162  0.0000E+00  0.0000E+00  0.2000E+02  0.2000E+02
     -8.036  0.0000E+00  0.0000E+00  0.2000E+02  0.2000E+02
     -7.910  0.0000E+00  0.0000E+00  0.2000E+02  0.2000E+02
     -7.785  0.0000E+00  0.0000E+00  0.2000E+02  0.2000E+02
     -7.659  0.0000E+00  0.0000E+00  0.2000E+02  0.2000E+02
     -7.533  0.0000E+00  0.0000E+00  0.2000E+02  0.2000E+02
     -7.407  0.0000E+00  0.0000E+00  0.2000E+02  0.2000E+02
     -7.281  0.0000E+00  0.0000E+00  0.2000E+02  0.2000E+02
     -7.155  0.0000E+00  0.0000E+00  0.2000E+02  0.2000E+02
     -7.029  0.0000E+00  0.0000E+00  0.2000E+02  0.2000E+02
     -6.903  0.0000E+00  0.0000E+00  0.2000E+02  0.2000E+02
     -6.777  0.0000E+00  0.0000E+00  0.2000E+02  0.2000E+02
     -6.651  0.0000E+00  0.0000E+00  0.2000E+02  0.2000E+02
     -6.525  0.0000E+00  0.0000E+00  0.2000E+02  0.2000E+02
     -6.399  0.0000E+00  0.0000E+00  0.2000E+02  0.2000E+02
     -6.273  0.0000E+00  0.0000E+00  0.2000E+02  0.2000E+02
     -6.148  0.0000E+00  0.0000E+00  0.2000E+02  0.2000E+02
     -6.022  0.0000E+00  0.0000E+00  0.2000E+02  0.2000E+02
     -5.896  0.0000E+00  0.0000E+00  0.2000E+02  0.2000E+02
     -5.770  0.0000E+00  0.0000E+00  0.2000E+02  0.2000E+02
     -5.644  0.0000E+00  0.0000E+00  0.2000E+02  0.2000E+02
     -5.518  0.0000E+00  0.0000E+00  0.2000E+02  0.2000E+02
     -5.392  0.0000E+00  0.0000E+00  0.2000E+02  0.2000E+02
     -5.266  0.0000E+00  0.0000E+00  0.2000E+02  0.2000E+02
     -5.140  0.0000E+00  0.0000E+00  0.2000E+02  0.2000E+02
     -5.014  0.0000E+00  0.0000E+00  0.2000E+02  0.2000E+02
     -4.888  0.0000E+00  0.0000E+00  0.2000E+02  0.2000E+02
     -4.762  0.0000E+00  0.0000E+00  0.2000E+02  0.2000E+02
     -4.636  0.0000E+00  0.0000E+00  0.2000E+02  0.2000E+02
     -4.511  0.0000E+00  0.0000E+00  0.2000E+02  0.2000E+02
     -4.385  0.0000E+00  0.0000E+00  0.2000E+02  0.2000E+02
     -4.259  0.0000E+00  0.0000E+00  0.2000E+02  0.2000E+02
     -4.133  0.0000E+00  0.0000E+00  0.2000E+02  0.2000E+02
     -4.007  0.0000E+00  0.0000E+00  0.2000E+02  0.2000E+02
     -3.881  0.0000E+00  0.0000E+00  0.2000E+02  0.2000E+02
     -3.755  0.0000E+00  0.0000E+00  0.2000E+02  0.2000E+02
     -3.629  0.0000E+00  0.0000E+00  0.2000E+02  0.2000E+02
     -3.503  0.0000E+00  0.0000E+00  0.2000E+02  0.2000E+02
     -3.377  0.0000E+00  0.0000E+00  0.2000E+02  0.2000E+02
     -3.251  0.0000E+00  0.0000E+00  0.2000E+02  0.2000E+02
     -3.125  0.0000E+00  0.0000E+00  0.2000E+02  0.2000E+02
     -2.999  0.0000E+00  0.0000E+00  0.2000E+02  0.2000E+02
     -2.874  0.0000E+00  0.0000E+00  0.2000E+02  0.2000E+02
     -2.748  0.0000E+00  0.0000E+00  0.2000E+02  0.2000E+02
     -2.622  0.3671E-15  0.1080E-16  0.2000E+02  0.2000E+02
     -2.496  0.2535E-12  0.1180E-13  0.2000E+02  0.2000E+02
     -2.370  0.8167E-10  0.5503E-11  0.2000E+02  0.2000E+02
     -2.244  0.1242E-07  0.1203E-08  0.2000E+02  0.2000E+02
     -2.118  0.9097E-06  0.1253E-06  0.2000E+02  0.2000E+02
     -1.992  0.3311E-04  0.6390E-05  0.2000E+02  0.2000E+02
     -1.866  0.6227E-03  0.1650E-03  0.2000E+02  0.2000E+02
     -1.740  0.6331E-02  0.2253E-02  0.2000E+02  0.2000E+02
     -1.614  0.3631E-01  0.1698E-01  0.2001E+02  0.2000E+02
     -1.488  0.1222E+00  0.7359E-01  0.2002E+02  0.2001E+02
     -1.363  0.2564E+00  0.1918E+00  0.2005E+02  0.2004E+02
     -1.237  0.3884E+00  0.3317E+00  0.2010E+02  0.2008E+02
     -1.111  0.5296E+00  0.4674E+00  0.2017E+02  0.2014E+02
     -0.985  0.6623E+00  0.6166E+00  0.2025E+02  0.2021E+02
     -0.859  0.7273E+00  0.7120E+00  0.2034E+02  0.2030E+02
     -0.733  0.8506E+00  0.7981E+00  0.2045E+02  0.2040E+02
     -0.607  0.1034E+01  0.9744E+00  0.2058E+02  0.2053E+02
     -0.481  0.1165E+01  0.1131E+01  0.2073E+02  0.2067E+02
     -0.355  0.1315E+01  0.1272E+01  0.2089E+02  0.2083E+02
     -0.229  0.1545E+01  0.1473E+01  0.2109E+02  0.2102E+02
     -0.103  0.1934E+01  0.1806E+01  0.2133E+02  0.2124E+02
      0.023  0.2478E+01  0.2320E+01  0.2164E+02  0.2153E+02
      0.149  0.3225E+01  0.3013E+01  0.2205E+02  0.2191E+02
      0.274  0.4184E+01  0.3923E+01  0.2258E+02  0.2241E+02
      0.400  0.4620E+01  0.4518E+01  0.2316E+02  0.2298E+02
      0.526  0.3787E+01  0.4057E+01  0.2364E+02  0.2349E+02
      0.652  0.2078E+01  0.2637E+01  0.2390E+02  0.2382E+02
      0.778  0.6839E+00  0.1117E+01  0.2398E+02  0.2396E+02
      0.904  0.1235E+00  0.2743E+00  0.2400E+02  0.2400E+02
      1.030  0.1154E-01  0.3607E-01  0.2400E+02  0.2400E+02
      1.156  0.5388E-03  0.2423E-02  0.2400E+02  0.2400E+02
      1.282  0.1230E-04  0.8083E-04  0.2400E+02  0.2400E+02
      1.408  0.1350E-06  0.1312E-05  0.2400E+02  0.2400E+02
      1.534  0.7036E-09  0.1021E-07  0.2400E+02  0.2400E+02
      1.660  0.1783E-11  0.3759E-10  0.2400E+02  0.2400E+02
      1.786  0.2300E-10  0.1284E-10  0.2400E+02  0.2400E+02
      1.911  0.4348E-08  0.2535E-08  0.2400E+02  0.2400E+02
      2.037  0.3974E-06  0.2418E-06  0.2400E+02  0.2400E+02
      2.163  0.1801E-04  0.1139E-04  0.2400E+02  0.2400E+02
      2.289  0.4175E-03  0.2747E-03  0.2400E+02  0.2400E+02
      2.415  0.5118E-02  0.3522E-02  0.2400E+02  0.2400E+02
      2.541  0.3456E-01  0.2492E-01  0.2401E+02  0.2400E+02
      2.667  0.1382E+00  0.1013E+00  0.2402E+02  0.2402E+02
      2.793  0.3891E+00  0.2565E+00  0.2407E+02  0.2405E+02
      2.919  0.9852E+00  0.5056E+00  0.2420E+02  0.2411E+02
      3.045  0.2253E+01  0.1060E+01  0.2448E+02  0.2425E+02
      3.171  0.3949E+01  0.2281E+01  0.2498E+02  0.2453E+02
      3.297  0.5208E+01  0.4049E+01  0.2563E+02  0.2504E+02
      3.423  0.5569E+01  0.5495E+01  0.2633E+02  0.2573E+02
      3.548  0.4990E+01  0.5817E+01  0.2696E+02  0.2647E+02
      3.674  0.3891E+01  0.5039E+01  0.2745E+02  0.2710E+02
      3.800  0.2911E+01  0.3823E+01  0.2782E+02  0.2758E+02
      3.926  0.2541E+01  0.2811E+01  0.2814E+02  0.2794E+02
      4.052  0.3312E+01  0.2666E+01  0.2856E+02  0.2827E+02
      4.178  0.4979E+01  0.3824E+01  0.2918E+02  0.2875E+02
      4.304  0.6689E+01  0.5683E+01  0.3002E+02  0.2947E+02
      4.430  0.8314E+01  0.7385E+01  0.3107E+02  0.3040E+02
      4.556  0.9644E+01  0.8585E+01  0.3229E+02  0.3148E+02
      4.682  0.1033E+02  0.9150E+01  0.3359E+02  0.3263E+02
      4.808  0.1048E+02  0.9591E+01  0.3491E+02  0.3384E+02
      4.934  0.1012E+02  0.1012E+02  0.3618E+02  0.3511E+02
      5.060  0.9631E+01  0.1009E+02  0.3739E+02  0.3639E+02
      5.185  0.9679E+01  0.9724E+01  0.3861E+02  0.3761E+02
      5.311  0.1036E+02  0.9836E+01  0.3992E+02  0.3885E+02
      5.437  0.1125E+02  0.1057E+02  0.4133E+02  0.4018E+02
      5.563  0.1160E+02  0.1138E+02  0.4279E+02  0.4161E+02
      5.689  0.1135E+02  0.1167E+02  0.4422E+02  0.4308E+02
      5.815  0.1093E+02  0.1147E+02  0.4560E+02  0.4453E+02
      5.941  0.1020E+02  0.1098E+02  0.4689E+02  0.4591E+02
      6.067  0.9490E+01  0.1036E+02  0.4808E+02  0.4721E+02
      6.193  0.8738E+01  0.9544E+01  0.4918E+02  0.4842E+02
      6.319  0.7983E+01  0.8418E+01  0.5019E+02  0.4948E+02
      6.445  0.8499E+01  0.7827E+01  0.5126E+02  0.5046E+02
      6.571  0.9848E+01  0.8583E+01  0.5250E+02  0.5154E+02
      6.697  0.1063E+02  0.9839E+01  0.5383E+02  0.5278E+02
      6.822  0.1148E+02  0.1048E+02  0.5528E+02  0.5410E+02
      6.948  0.1288E+02  0.1172E+02  0.5690E+02  0.5558E+02
      7.074  0.1390E+02  0.1398E+02  0.5865E+02  0.5734E+02
      7.200  0.1458E+02  0.1508E+02  0.6049E+02  0.5924E+02
      7.326  0.1518E+02  0.1455E+02  0.6240E+02  0.6107E+02
      7.452  0.1448E+02  0.1338E+02  0.6422E+02  0.6275E+02
      7.578  0.1182E+02  0.1202E+02  0.6571E+02  0.6427E+02
      7.704  0.8881E+01  0.1028E+02  0.6683E+02  0.6556E+02
      7.830  0.7133E+01  0.8421E+01  0.6773E+02  0.6662E+02
      7.956  0.6141E+01  0.7115E+01  0.6850E+02  0.6752E+02
      8.082  0.5135E+01  0.6063E+01  0.6915E+02  0.6828E+02
      8.208  0.4453E+01  0.4820E+01  0.6971E+02  0.6889E+02
      8.333  0.4577E+01  0.3614E+01  0.7029E+02  0.6934E+02
      8.459  0.5168E+01  0.2743E+01  0.7094E+02  0.6969E+02
      8.585  0.6503E+01  0.2532E+01  0.7176E+02  0.7001E+02
      8.711  0.8938E+01  0.3127E+01  0.7288E+02  0.7040E+02
      8.837  0.1108E+02  0.3711E+01  0.7428E+02  0.7087E+02
      8.963  0.1193E+02  0.3184E+01  0.7578E+02  0.7127E+02
      9.089  0.1152E+02  0.2140E+01  0.7723E+02  0.7154E+02
      9.215  0.1012E+02  0.1796E+01  0.7850E+02  0.7177E+02
      9.341  0.8912E+01  0.2629E+01  0.7963E+02  0.7210E+02
      9.467  0.9099E+01  0.4598E+01  0.8077E+02  0.7268E+02
      9.593  0.1029E+02  0.6763E+01  0.8207E+02  0.7353E+02
      9.719  0.1075E+02  0.8149E+01  0.8342E+02  0.7455E+02
      9.845  0.1008E+02  0.9276E+01  0.8469E+02  0.7572E+02
      9.970  0.8951E+01  0.1152E+02  0.8582E+02  0.7717E+02
     10.096  0.7849E+01  0.1450E+02  0.8681E+02  0.7900E+02
     10.222  0.6636E+01  0.1528E+02  0.8764E+02  0.8092E+02
     10.348  0.5329E+01  0.1315E+02  0.8831E+02  0.8258E+02
     10.474  0.4642E+01  0.1087E+02  0.8890E+02  0.8395E+02
     10.600  0.4638E+01  0.1021E+02  0.8948E+02  0.8523E+02
     10.726  0.4536E+01  0.1007E+02  0.9005E+02  0.8650E+02
     10.852  0.4006E+01  0.8858E+01  0.9056E+02  0.8761E+02
     10.978  0.3417E+01  0.7053E+01  0.9099E+02  0.8850E+02
     11.104  0.3104E+01  0.5972E+01  0.9138E+02  0.8926E+02
     11.230  0.3058E+01  0.5641E+01  0.9176E+02  0.8997E+02
     11.356  0.3074E+01  0.5045E+01  0.9215E+02  0.9060E+02
     11.482  0.3162E+01  0.4150E+01  0.9255E+02  0.9112E+02
     11.607  0.3277E+01  0.3814E+01  0.9296E+02  0.9160E+02
     11.733  0.3210E+01  0.4059E+01  0.9336E+02  0.9211E+02
     11.859  0.2807E+01  0.3996E+01  0.9372E+02  0.9262E+02
     11.985  0.2234E+01  0.3460E+01  0.9400E+02  0.9305E+02
     12.111  0.1825E+01  0.3011E+01  0.9423E+02  0.9343E+02
     12.237  0.1661E+01  0.2719E+01  0.9444E+02  0.9378E+02
     12.363  0.1667E+01  0.2359E+01  0.9465E+02  0.9407E+02
     12.489  0.1804E+01  0.1967E+01  0.9488E+02  0.9432E+02
     12.615  0.1984E+01  0.1698E+01  0.9513E+02  0.9453E+02
     12.741  0.2057E+01  0.1715E+01  0.9538E+02  0.9475E+02
     12.867  0.2059E+01  0.1994E+01  0.9564E+02  0.9500E+02
     12.993  0.2194E+01  0.2286E+01  0.9592E+02  0.9529E+02
     13.119  0.2552E+01  0.2428E+01  0.9624E+02  0.9559E+02
     13.244  0.3021E+01  0.2509E+01  0.9662E+02  0.9591E+02
     13.370  0.3334E+01  0.2788E+01  0.9704E+02  0.9626E+02
     13.496  0.3181E+01  0.3229E+01  0.9744E+02  0.9667E+02
     13.622  0.2750E+01  0.3470E+01  0.9779E+02  0.9711E+02
     13.748  0.2317E+01  0.3321E+01  0.9808E+02  0.9752E+02
     13.874  0.1751E+01  0.2903E+01  0.9830E+02  0.9789E+02
     14.000  0.1325E+01  0.2242E+01  0.9847E+02  0.9817E+02
     14.126  0.1333E+01  0.1569E+01  0.9864E+02  0.9837E+02
     14.252  0.1430E+01  0.1283E+01  0.9882E+02  0.9853E+02
     14.378  0.1457E+01  0.1316E+01  0.9900E+02  0.9870E+02
     14.504  0.1600E+01  0.1456E+01  0.9920E+02  0.9888E+02
     14.630  0.1901E+01  0.1664E+01  0.9944E+02  0.9909E+02
     14.756  0.2344E+01  0.1828E+01  0.9974E+02  0.9932E+02
     14.881  0.2741E+01  0.1999E+01  0.1001E+03  0.9957E+02
     15.007  0.2785E+01  0.2276E+01  0.1004E+03  0.9986E+02
     15.133  0.2817E+01  0.2470E+01  0.1008E+03  0.1002E+03
     15.259  0.3313E+01  0.2625E+01  0.1012E+03  0.1005E+03
     15.385  0.3828E+01  0.3023E+01  0.1017E+03  0.1009E+03
     15.511  0.3776E+01  0.3688E+01  0.1022E+03  0.1013E+03
     15.637  0.3398E+01  0.4098E+01  0.1026E+03  0.1019E+03
     15.763  0.3108E+01  0.3823E+01  0.1030E+03  0.1023E+03
     15.889  0.2604E+01  0.3276E+01  0.1033E+03  0.1028E+03
     16.015  0.2012E+01  0.2904E+01  0.1036E+03  0.1031E+03
     16.141  0.2095E+01  0.2436E+01  0.1038E+03  0.1034E+03
     16.267  0.2857E+01  0.2077E+01  0.1042E+03  0.1037E+03
     16.393  0.3534E+01  0.2394E+01  0.1046E+03  0.1040E+03
     16.518  0.3803E+01  0.3099E+01  0.1051E+03  0.1044E+03
     16.644  0.3638E+01  0.3684E+01  0.1056E+03  0.1048E+03
     16.770  0.3332E+01  0.3926E+01  0.1060E+03  0.1053E+03
     16.896  0.3402E+01  0.3759E+01  0.1064E+03  0.1058E+03
     17.022  0.3389E+01  0.3596E+01  0.1068E+03  0.1063E+03
     17.148  0.2828E+01  0.3441E+01  0.1072E+03  0.1067E+03
     17.274  0.2348E+01  0.2875E+01  0.1075E+03  0.1071E+03
     17.400  0.2537E+01  0.2311E+01  0.1078E+03  0.1074E+03
     17.526  0.3183E+01  0.2327E+01  0.1082E+03  0.1076E+03
     17.652  0.3641E+01  0.2807E+01  0.1087E+03  0.1080E+03
     17.778  0.3535E+01  0.3503E+01  0.1091E+03  0.1084E+03
     17.904  0.3382E+01  0.3908E+01  0.1095E+03  0.1089E+03
     18.029  0.3671E+01  0.3785E+01  0.1100E+03  0.1094E+03
     18.155  0.3914E+01  0.3672E+01  0.1105E+03  0.1099E+03
     18.281  0.3590E+01  0.3705E+01  0.1109E+03  0.1103E+03
     18.407  0.2996E+01  0.3474E+01  0.1113E+03  0.1108E+03
     18.533  0.2820E+01  0.2960E+01  0.1117E+03  0.1111E+03
     18.659  0.3133E+01  0.2699E+01  0.1121E+03  0.1115E+03
     18.785  0.3693E+01  0.2921E+01  0.1125E+03  0.1119E+03
     18.911  0.4251E+01  0.3465E+01  0.1131E+03  0.1123E+03
     19.037  0.4381E+01  0.4243E+01  0.1136E+03  0.1128E+03
     19.163  0.4229E+01  0.4651E+01  0.1142E+03  0.1134E+03
     19.289  0.4114E+01  0.4401E+01  0.1147E+03  0.1140E+03
     19.415  0.3876E+01  0.4110E+01  0.1152E+03  0.1145E+03
     19.541  0.3753E+01  0.3869E+01  0.1156E+03  0.1150E+03
     19.666  0.3857E+01  0.3627E+01  0.1161E+03  0.1154E+03
     19.792  0.3500E+01  0.3433E+01  0.1166E+03  0.1159E+03
     19.918  0.2702E+01  0.3289E+01  0.1169E+03  0.1163E+03
     20.044  0.2096E+01  0.3060E+01  0.1172E+03  0.1167E+03
     20.170  0.1836E+01  0.2611E+01  0.1174E+03  0.1170E+03
     20.296  0.1641E+01  0.2235E+01  0.1176E+03  0.1173E+03
     20.422  0.1197E+01  0.1929E+01  0.1178E+03  0.1175E+03
     20.548  0.7275E+00  0.1385E+01  0.1179E+03  0.1177E+03
     20.674  0.4934E+00  0.8288E+00  0.1179E+03  0.1178E+03
     20.800  0.3772E+00  0.5909E+00  0.1180E+03  0.1179E+03
     20.926  0.2238E+00  0.5065E+00  0.1180E+03  0.1179E+03
     21.052  0.7769E-01  0.3437E+00  0.1180E+03  0.1180E+03
     21.178  0.1395E-01  0.1653E+00  0.1180E+03  0.1180E+03
     21.303  0.1232E-02  0.5611E-01  0.1180E+03  0.1180E+03
     21.429  0.5218E-04  0.1171E-01  0.1180E+03  0.1180E+03
     21.555  0.1045E-05  0.1291E-02  0.1180E+03  0.1180E+03
     21.681  0.9804E-08  0.6948E-04  0.1180E+03  0.1180E+03
     21.807  0.4273E-10  0.1767E-05  0.1180E+03  0.1180E+03
     21.933  0.8605E-13  0.2093E-07  0.1180E+03  0.1180E+03
     22.059  0.8637E-16  0.1147E-09  0.1180E+03  0.1180E+03
     22.185  0.0000E+00  0.2896E-12  0.1180E+03  0.1180E+03
     22.311  0.0000E+00  0.3455E-15  0.1180E+03  0.1180E+03
     22.437  0.0000E+00  0.0000E+00  0.1180E+03  0.1180E+03
     22.563  0.0000E+00  0.0000E+00  0.1180E+03  0.1180E+03
     22.689  0.0000E+00  0.0000E+00  0.1180E+03  0.1180E+03
     22.815  0.0000E+00  0.0000E+00  0.1180E+03  0.1180E+03
     22.940  0.0000E+00  0.0000E+00  0.1180E+03  0.1180E+03
     23.066  0.0000E+00  0.0000E+00  0.1180E+03  0.1180E+03
     23.06637088    -14.71023841  301      9.03054236      1.00000000
    -14.710  0.0000E+00  0.0000E+00  0.0000E+00  0.0000E+00  0.0000E+00  0.0000E+00  0.0000E+00  0.0000E+00  0.0000E+00  0.0000E+00  0.0000E+00  0.0000E+00  0.0000E+00  0.0000E+00  0.0000E+00  0.0000E+00  0.0000E+00  0.0000E+00
    -14.584  0.0000E+00  0.0000E+00  0.0000E+00  0.0000E+00  0.0000E+00  0.0000E+00  0.0000E+00  0.0000E+00  0.0000E+00  0.0000E+00  0.0000E+00  0.0000E+00  0.0000E+00  0.0000E+00  0.0000E+00  0.0000E+00  0.0000E+00  0.0000E+00
    -14.458  0.0000E+00  0.0000E+00  0.0000E+00  0.0000E+00  0.0000E+00  0.0000E+00  0.0000E+00  0.0000E+00  0.0000E+00  0.0000E+00  0.0000E+00  0.0000E+00  0.0000E+00  0.0000E+00  0.0000E+00  0.0000E+00  0.0000E+00  0.0000E+00
    -14.332  0.0000E+00  0.0000E+00  0.0000E+00  0.0000E+00  0.0000E+00  0.0000E+00  0.0000E+00  0.0000E+00  0.0000E+00  0.0000E+00  0.0000E+00  0.0000E+00  0.0000E+00  0.0000E+00  0.0000E+00  0.0000E+00  0.0000E+00  0.0000E+00
    -14.207  0.0000E+00  0.0000E+00  0.0000E+00  0.0000E+00  0.0000E+00  0.0000E+00  0.0000E+00  0.0000E+00  0.0000E+00  0.0000E+00  0.0000E+00  0.0000E+00  0.0000E+00  0.0000E+00  0.0000E+00  0.0000E+00  0.0000E+00  0.0000E+00
    -14.081  0.0000E+00  0.0000E+00  0.0000E+00  0.0000E+00  0.0000E+00  0.0000E+00  0.0000E+00  0.0000E+00  0.0000E+00  0.0000E+00  0.0000E+00  0.0000E+00  0.0000E+00  0.0000E+00  0.0000E+00  0.0000E+00  0.0000E+00  0.0000E+00
    -13.955  0.0000E+00  0.0000E+00  0.0000E+00  0.0000E+00  0.0000E+00  0.0000E+00  0.0000E+00  0.0000E+00  0.0000E+00  0.0000E+00  0.0000E+00  0.0000E+00  0.0000E+00  0.0000E+00  0.0000E+00  0.0000E+00  0.0000E+00  0.0000E+00
    -13.829  0.4628E-18  0.6626E-18  0.1486E-18  0.2090E-18  0.3083E-18  0.4310E-18  0.1028E-18  0.1459E-18  0.2964E-18  0.4116E-18  0.4260E-18  0.5766E-18  0.2016E-18  0.2749E-18  0.6849E-18  0.9328E-18  0.3849E-19  0.4346E-19
    -13.703  0.5266E-15  0.7081E-15  0.1799E-15  0.2377E-15  0.3684E-15  0.4980E-15  0.1382E-15  0.1809E-15  0.3557E-15  0.4746E-15  0.5105E-15  0.6490E-15  0.2182E-15  0.2848E-15  0.7743E-15  0.9992E-15  0.5578E-16  0.5786E-16
    -13.577  0.2647E-12  0.3448E-12  0.9502E-13  0.1217E-12  0.1951E-12  0.2551E-12  0.7511E-13  0.9543E-13  0.1901E-12  0.2454E-12  0.2666E-12  0.3303E-12  0.1060E-12  0.1338E-12  0.3944E-12  0.4946E-12  0.3139E-13  0.3209E-13
    -13.451  0.6229E-10  0.7857E-10  0.2340E-10  0.2905E-10  0.4796E-10  0.6066E-10  0.1913E-10  0.2358E-10  0.4709E-10  0.5882E-10  0.6486E-10  0.7833E-10  0.2411E-10  0.2946E-10  0.9320E-10  0.1136E-09  0.8220E-11  0.8307E-11
    -13.325  0.6891E-08  0.8417E-08  0.2702E-08  0.3249E-08  0.5497E-08  0.6724E-08  0.2293E-08  0.2744E-08  0.5433E-08  0.6565E-08  0.7391E-08  0.8704E-08  0.2585E-08  0.3061E-08  0.1027E-07  0.1217E-07  0.1006E-08  0.1007E-08
    -13.199  0.3604E-06  0.4262E-06  0.1473E-06  0.1716E-06  0.2952E-06  0.3492E-06  0.1303E-06  0.1512E-06  0.2934E-06  0.3431E-06  0.3970E-06  0.4559E-06  0.1316E-06  0.1511E-06  0.5303E-06  0.6112E-06  0.5773E-07  0.5748E-07
    -13.073  0.8968E-05  0.1027E-04  0.3821E-05  0.4312E-05  0.7477E-05  0.8551E-05  0.3528E-05  0.3976E-05  0.7463E-05  0.8450E-05  0.1013E-04  0.1134E-04  0.3208E-05  0.3573E-05  0.1295E-04  0.1451E-04  0.1564E-05  0.1552E-05
    -12.947  0.1070E-03  0.1185E-03  0.4760E-04  0.5208E-04  0.8992E-04  0.9945E-04  0.4592E-04  0.5025E-04  0.9011E-04  0.9882E-04  0.1238E-03  0.1351E-03  0.3774E-04  0.4084E-04  0.1508E-03  0.1644E-03  0.2014E-04  0.1995E-04
    -12.821  0.6160E-03  0.6603E-03  0.2873E-03  0.3051E-03  0.5174E-03  0.5534E-03  0.2893E-03  0.3076E-03  0.5205E-03  0.5533E-03  0.7318E-03  0.7776E-03  0.2163E-03  0.2276E-03  0.8454E-03  0.8963E-03  0.1239E-03  0.1228E-03
    -12.695  0.1726E-02  0.1790E-02  0.8477E-03  0.8746E-03  0.1435E-02  0.1484E-02  0.8885E-03  0.9182E-03  0.1450E-02  0.1495E-02  0.2109E-02  0.2181E-02  0.6085E-03  0.6239E-03  0.2306E-02  0.2377E-02  0.3664E-03  0.3639E-03
    -12.570  0.2367E-02  0.2377E-02  0.1230E-02  0.1235E-02  0.1929E-02  0.1931E-02  0.1337E-02  0.1344E-02  0.1961E-02  0.1964E-02  0.2988E-02  0.3002E-02  0.8455E-03  0.8459E-03  0.3088E-02  0.3093E-02  0.5232E-03  0.5215E-03
    -12.444  0.1595E-02  0.1552E-02  0.8814E-03  0.8628E-03  0.1262E-02  0.1222E-02  0.9881E-03  0.9675E-03  0.1295E-02  0.1261E-02  0.2091E-02  0.2039E-02  0.5818E-03  0.5690E-03  0.2045E-02  0.1990E-02  0.3614E-03  0.3619E-03
    -12.318  0.5297E-03  0.4998E-03  0.3118E-03  0.2980E-03  0.4025E-03  0.3774E-03  0.3590E-03  0.3425E-03  0.4188E-03  0.3974E-03  0.7247E-03  0.6856E-03  0.1982E-03  0.1899E-03  0.6732E-03  0.6361E-03  0.1207E-03  0.1215E-03
    -12.192  0.8658E-04  0.7937E-04  0.5432E-04  0.5071E-04  0.6258E-04  0.5685E-04  0.6396E-04  0.5947E-04  0.6647E-04  0.6157E-04  0.1244E-03  0.1141E-03  0.3330E-04  0.3129E-04  0.1103E-03  0.1012E-03  0.1943E-04  0.1967E-04
    -12.066  0.6950E-05  0.6203E-05  0.4633E-05  0.4226E-05  0.4736E-05  0.4173E-05  0.5563E-05  0.5040E-05  0.5177E-05  0.4692E-05  0.1055E-04  0.9368E-05  0.2742E-05  0.2532E-05  0.8981E-05  0.7989E-05  0.1501E-05  0.1527E-05
    -11.940  0.2728E-06  0.2376E-06  0.1920E-06  0.1711E-06  0.1741E-06  0.1490E-06  0.2349E-06  0.2072E-06  0.1977E-06  0.1756E-06  0.4395E-06  0.3779E-06  0.1098E-06  0.9969E-07  0.3611E-06  0.3116E-06  0.5537E-07  0.5660E-07
    -11.814  0.5204E-08  0.4431E-08  0.3837E-08  0.3337E-08  0.3099E-08  0.2582E-08  0.4782E-08  0.4105E-08  0.3687E-08  0.3216E-08  0.8935E-08  0.7436E-08  0.2119E-08  0.1893E-08  0.7108E-08  0.5947E-08  0.9717E-09  0.9960E-09
    -11.688  0.4788E-10  0.3993E-10  0.3667E-10  0.3109E-10  0.2662E-10  0.2163E-10  0.4665E-10  0.3890E-10  0.3340E-10  0.2863E-10  0.8788E-10  0.7078E-10  0.1955E-10  0.1719E-10  0.6776E-10  0.5496E-10  0.8082E-11  0.8283E-11
    -11.562  0.2108E-12  0.1723E-12  0.1663E-12  0.1373E-12  0.1098E-12  0.8715E-13  0.2166E-12  0.1752E-12  0.1458E-12  0.1229E-12  0.4145E-12  0.3230E-12  0.8555E-13  0.7397E-13  0.3094E-12  0.2432E-12  0.3177E-13  0.3244E-13
    -11.436  0.4404E-15  0.3529E-15  0.3560E-15  0.2855E-15  0.2164E-15  0.1680E-15  0.4756E-15  0.3726E-15  0.3041E-15  0.2518E-15  0.9295E-15  0.7004E-15  0.1764E-15  0.1499E-15  0.6701E-15  0.5104E-15  0.5894E-16  0.5965E-16
    -11.310  0.3716E-18  0.2887E-18  0.3131E-18  0.2411E-18  0.1528E-18  0.1121E-18  0.4210E-18  0.3246E-18  0.2579E-18  0.2036E-18  0.8619E-18  0.6280E-18  0.1490E-18  0.1239E-18  0.6091E-18  0.4405E-18  0.2706E-19  0.2799E-19
    -11.184  0.0000E+00  0.0000E+00  0.0000E+00  0.0000E+00  0.0000E+00  0.0000E+00  0.0000E+00  0.0000E+00  0.0000E+00  0.0000E+00  0.0000E+00  0.0000E+00  0.0000E+00  0.0000E+00  0.0000E+00  0.0000E+00  0.0000E+00  0.0000E+00
    -11.058  0.0000E+00  0.0000E+00  0.0000E+00  0.0000E+00  0.0000E+00  0.0000E+00  0.0000E+00  0.0000E+00  0.0000E+00  0.0000E+00  0.0000E+00  0.0000E+00  0.0000E+00  0.0000E+00  0.0000E+00  0.0000E+00  0.0000E+00  0.0000E+00
    -10.933  0.0000E+00  0.0000E+00  0.0000E+00  0.0000E+00  0.0000E+00  0.0000E+00  0.0000E+00  0.0000E+00  0.0000E+00  0.0000E+00  0.0000E+00  0.0000E+00  0.0000E+00  0.0000E+00  0.0000E+00  0.0000E+00  0.0000E+00  0.0000E+00
    -10.807  0.0000E+00  0.0000E+00  0.0000E+00  0.0000E+00  0.0000E+00  0.0000E+00  0.0000E+00  0.0000E+00  0.0000E+00  0.0000E+00  0.0000E+00  0.0000E+00  0.0000E+00  0.0000E+00  0.0000E+00  0.0000E+00  0.0000E+00  0.0000E+00
    -10.681  0.0000E+00  0.0000E+00  0.0000E+00  0.0000E+00  0.0000E+00  0.0000E+00  0.0000E+00  0.0000E+00  0.0000E+00  0.0000E+00  0.0000E+00  0.0000E+00  0.0000E+00  0.0000E+00  0.0000E+00  0.0000E+00  0.0000E+00  0.0000E+00
    -10.555  0.0000E+00  0.0000E+00  0.0000E+00  0.0000E+00  0.0000E+00  0.0000E+00  0.0000E+00  0.0000E+00  0.0000E+00  0.0000E+00  0.0000E+00  0.0000E+00  0.0000E+00  0.0000E+00  0.0000E+00  0.0000E+00  0.0000E+00  0.0000E+00
    -10.429  0.0000E+00  0.0000E+00  0.0000E+00  0.0000E+00  0.0000E+00  0.0000E+00  0.0000E+00  0.0000E+00  0.0000E+00  0.0000E+00  0.0000E+00  0.0000E+00  0.0000E+00  0.0000E+00  0.0000E+00  0.0000E+00  0.0000E+00  0.0000E+00
    -10.303  0.0000E+00  0.0000E+00  0.0000E+00  0.0000E+00  0.0000E+00  0.0000E+00  0.0000E+00  0.0000E+00  0.0000E+00  0.0000E+00  0.0000E+00  0.0000E+00  0.0000E+00  0.0000E+00  0.0000E+00  0.0000E+00  0.0000E+00  0.0000E+00
    -10.177  0.0000E+00  0.0000E+00  0.0000E+00  0.0000E+00  0.0000E+00  0.0000E+00  0.0000E+00  0.0000E+00  0.0000E+00  0.0000E+00  0.0000E+00  0.0000E+00  0.0000E+00  0.0000E+00  0.0000E+00  0.0000E+00  0.0000E+00  0.0000E+00
    -10.051  0.0000E+00  0.0000E+00  0.0000E+00  0.0000E+00  0.0000E+00  0.0000E+00  0.0000E+00  0.0000E+00  0.0000E+00  0.0000E+00  0.0000E+00  0.0000E+00  0.0000E+00  0.0000E+00  0.0000E+00  0.0000E+00  0.0000E+00  0.0000E+00
     -9.925  0.0000E+00  0.0000E+00  0.0000E+00  0.0000E+00  0.0000E+00  0.0000E+00  0.0000E+00  0.0000E+00  0.0000E+00  0.0000E+00  0.0000E+00  0.0000E+00  0.0000E+00  0.0000E+00  0.0000E+00  0.0000E+00  0.0000E+00  0.0000E+00
     -9.799  0.0000E+00  0.0000E+00  0.0000E+00  0.0000E+00  0.0000E+00  0.0000E+00  0.0000E+00  0.0000E+00  0.0000E+00  0.0000E+00  0.0000E+00  0.0000E+00  0.0000E+00  0.0000E+00  0.0000E+00  0.0000E+00  0.0000E+00  0.0000E+00
     -9.673  0.0000E+00  0.0000E+00  0.0000E+00  0.0000E+00  0.0000E+00  0.0000E+00  0.0000E+00  0.0000E+00  0.0000E+00  0.0000E+00  0.0000E+00  0.0000E+00  0.0000E+00  0.0000E+00  0.0000E+00  0.0000E+00  0.0000E+00  0.0000E+00
     -9.547  0.0000E+00  0.0000E+00  0.0000E+00  0.0000E+00  0.0000E+00  0.0000E+00  0.0000E+00  0.0000E+00  0.0000E+00  0.0000E+00  0.0000E+00  0.0000E+00  0.0000E+00  0.0000E+00  0.0000E+00  0.0000E+00  0.0000E+00  0.0000E+00
     -9.422  0.0000E+00  0.0000E+00  0.0000E+00  0.0000E+00  0.0000E+00  0.0000E+00  0.0000E+00  0.0000E+00  0.0000E+00  0.0000E+00  0.0000E+00  0.0000E+00  0.0000E+00  0.0000E+00  0.0000E+00  0.0000E+00  0.0000E+00  0.0000E+00
     -9.296  0.0000E+00  0.0000E+00  0.0000E+00  0.0000E+00  0.0000E+00  0.0000E+00  0.0000E+00  0.0000E+00  0.0000E+00  0.0000E+00  0.0000E+00  0.0000E+00  0.0000E+00  0.0000E+00  0.0000E+00  0.0000E+00  0.0000E+00  0.0000E+00
     -9.170  0.0000E+00  0.0000E+00  0.0000E+00  0.0000E+00  0.0000E+00  0.0000E+00  0.0000E+00  0.0000E+00  0.0000E+00  0.0000E+00  0.0000E+00  0.0000E+00  0.0000E+00  0.0000E+00  0.0000E+00  0.0000E+00  0.0000E+00  0.0000E+00
     -9.044  0.0000E+00  0.0000E+00  0.0000E+00  0.0000E+00  0.0000E+00  0.0000E+00  0.0000E+00  0.0000E+00  0.0000E+00  0.0000E+00  0.0000E+00  0.0000E+00  0.0000E+00  0.0000E+00  0.0000E+00  0.0000E+00  0.0000E+00  0.0000E+00
     -8.918  0.0000E+00  0.0000E+00  0.0000E+00  0.0000E+00  0.0000E+00  0.0000E+00  0.0000E+00  0.0000E+00  0.0000E+00  0.0000E+00  0.0000E+00  0.0000E+00  0.0000E+00  0.0000E+00  0.0000E+00  0.0000E+00  0.0000E+00  0.0000E+00
     -8.792  0.0000E+00  0.0000E+00  0.0000E+00  0.0000E+00  0.0000E+00  0.0000E+00  0.0000E+00  0.0000E+00  0.0000E+00  0.0000E+00  0.0000E+00  0.0000E+00  0.0000E+00  0.0000E+00  0.0000E+00  0.0000E+00  0.0000E+00  0.0000E+00
     -8.666  0.0000E+00  0.0000E+00  0.0000E+00  0.0000E+00  0.0000E+00  0.0000E+00  0.0000E+00  0.0000E+00  0.0000E+00  0.0000E+00  0.0000E+00  0.0000E+00  0.0000E+00  0.0000E+00  0.0000E+00  0.0000E+00  0.0000E+00  0.0000E+00
     -8.540  0.0000E+00  0.0000E+00  0.0000E+00  0.0000E+00  0.0000E+00  0.0000E+00  0.0000E+00  0.0000E+00  0.0000E+00  0.0000E+00  0.0000E+00  0.0000E+00  0.0000E+00  0.0000E+00  0.0000E+00  0.0000E+00  0.0000E+00  0.0000E+00
     -8.414  0.0000E+00  0.0000E+00  0.0000E+00  0.0000E+00  0.0000E+00  0.0000E+00  0.0000E+00  0.0000E+00  0.0000E+00  0.0000E+00  0.0000E+00  0.0000E+00  0.0000E+00  0.0000E+00  0.0000E+00  0.0000E+00  0.0000E+00  0.0000E+00