 vasp.5.3.2 13Sep12 (build Sep 19 2012 13:12:15) complex                         
 executed on              unknown date 2013.03.28  07:31:17
 running on   24 total cores
 distrk:  each k-point on   24 cores,    1 groups
 distr:  one band on NCORES_PER_BAND=  12 cores,    2 groups


--------------------------------------------------------------------------------------------------------


 INCAR:
 POTCAR:  PAW_PBE Rh 06Sep2000                    
 POTCAR:  PAW_PBE Sn_d 06Sep2000                  
 POTCAR:  PAW_PBE V 08Apr2002                     

 ----------------------------------------------------------------------------- 
|                                                                             |
|           W    W    AA    RRRRR   N    N  II  N    N   GGGG   !!!           |
|           W    W   A  A   R    R  NN   N  II  NN   N  G    G  !!!           |
|           W    W  A    A  R    R  N N  N  II  N N  N  G       !!!           |
|           W WW W  AAAAAA  RRRRR   N  N N  II  N  N N  G  GGG   !            |
|           WW  WW  A    A  R   R   N   NN  II  N   NN  G    G                |
|           W    W  A    A  R    R  N    N  II  N    N   GGGG   !!!           |
|                                                                             |
|      For optimal performance we recommend that you set                      |
|        NPAR = 4 - approx SQRT( number of cores)                             |
|      (number of cores/NPAR must be integer)                                 |
|      This setting will greatly improve the performance of VASP for DFT.     |
|      The default NPAR=number of cores might be grossly inefficient          |
|      on modern multi-core architectures or massively parallel machines.     |
|      Do your own testing.                                                   |
|      Unfortunately you need to use the default for hybrid, GW and RPA       |
|      calculations.                                                          |
|                                                                             |
 ----------------------------------------------------------------------------- 

 POTCAR:  PAW_PBE Rh 06Sep2000                    
   VRHFIN =Rh: s1 d8                                                            
   LEXCH  = PE                                                                  
   EATOM  =   616.5493 eV,   45.3151 Ry                                         
                                                                                
   TITEL  = PAW_PBE Rh 06Sep2000                                                
   LULTRA =        F    use ultrasoft PP ?                                      
   IUNSCR =        1    unscreen: 0-lin 1-nonlin 2-no                           
   RPACOR =    2.170    partial core radius                                     
   POMASS =  102.906; ZVAL   =    9.000    mass and valenz                      
   RCORE  =    2.500    outmost cutoff radius                                   
   RWIGS  =    2.650; RWIGS  =    1.402    wigner-seitz radius (au A)           
   ENMAX  =  229.000; ENMIN  =  171.750 eV                                      
   RCLOC  =    1.827    cutoff for local pot                                    
   LCOR   =        T    correct aug charges                                     
   LPAW   =        T    paw PP                                                  
   EAUG   =  374.513                                                            
   DEXC   =    -.066                                                            
   RMAX   =    3.047    core radius for proj-oper                               
   RAUG   =    1.300    factor for augmentation sphere                          
   RDEP   =    2.536    radius for radial grids                                 
   QCUT   =   -4.103; QGAM   =    8.205    optimization parameters              
                                                                                
   Description                                                                  
     l     E      TYP  RCUT    TYP  RCUT                                        
     2   .000     23  2.500                                                     
     2   .000     23  2.500                                                     
     0   .000     23  2.400                                                     
     0   .000     23  2.400                                                     
     1  -.200     23  2.500                                                     
     1   .000     23  2.500                                                     
     3   .000      7   .000                                                     
  local pseudopotential read in
  partial core-charges read in
  atomic valenz-charges read in
  non local Contribution for L= 2  read in
    real space projection operators read in
  non local Contribution for L= 2  read in
    real space projection operators read in
  non local Contribution for L= 0  read in
    real space projection operators read in
  non local Contribution for L= 0  read in
    real space projection operators read in
  non local Contribution for L= 1  read in
    real space projection operators read in
  non local Contribution for L= 1  read in
    real space projection operators read in
    PAW grid and wavefunctions read in
 
   number of l-projection  operators is LMAX  = 6
   number of lm-projection operators is LMMAX = 18
 
 POTCAR:  PAW_PBE Sn_d 06Sep2000                  
   VRHFIN =Sn: s2p2                                                             
   LEXCH  = PE                                                                  
   EATOM  =  1893.0782 eV,  139.1373 Ry                                         
                                                                                
   TITEL  = PAW_PBE Sn_d 06Sep2000                                              
   LULTRA =        F    use ultrasoft PP ?                                      
   IUNSCR =        1    unscreen: 0-lin 1-nonlin 2-no                           
   RPACOR =    2.300    partial core radius                                     
   POMASS =  118.710; ZVAL   =   14.000    mass and valenz                      
   RCORE  =    2.500    outmost cutoff radius                                   
   RWIGS  =    2.960; RWIGS  =    1.566    wigner-seitz radius (au A)           
   ENMAX  =  241.090; ENMIN  =  180.817 eV                                      
   ICORE  =        3    local potential                                         
   LCOR   =        T    correct aug charges                                     
   LPAW   =        T    paw PP                                                  
   EAUG   =  439.825                                                            
   DEXC   =    -.001                                                            
   RMAX   =    2.969    core radius for proj-oper                               
   RAUG   =    1.300    factor for augmentation sphere                          
   RDEP   =    2.659    radius for radial grids                                 
   QCUT   =   -4.209; QGAM   =    8.419    optimization parameters              
                                                                                
   Description                                                                  
     l     E      TYP  RCUT    TYP  RCUT                                        
     2   .000     23  2.500                                                     
     2  -.400     23  2.500                                                     
     0   .000     23  2.500                                                     
     0  1.000     23  2.500                                                     
     1   .000     23  2.500                                                     
     1   .000     23  2.500                                                     
     3  -.100      7  2.500                                                     
  local pseudopotential read in
  partial core-charges read in
  atomic valenz-charges read in
  non local Contribution for L= 2  read in
    real space projection operators read in
  non local Contribution for L= 2  read in
    real space projection operators read in
  non local Contribution for L= 0  read in
    real space projection operators read in
  non local Contribution for L= 0  read in
    real space projection operators read in
  non local Contribution for L= 1  read in
    real space projection operators read in
  non local Contribution for L= 1  read in
    real space projection operators read in
    PAW grid and wavefunctions read in
 
   number of l-projection  operators is LMAX  = 6
   number of lm-projection operators is LMMAX = 18
 
 POTCAR:  PAW_PBE V 08Apr2002                     
   VRHFIN =V: p6 d4 s1                                                          
   LEXCH  = PE                                                                  
   EATOM  =   170.8679 eV,   12.5584 Ry                                         
                                                                                
   TITEL  = PAW_PBE V 08Apr2002                                                 
   LULTRA =        F    use ultrasoft PP ?                                      
   IUNSCR =        1    unscreen: 0-lin 1-nonlin 2-no                           
   RPACOR =    2.000    partial core radius                                     
   POMASS =   50.941; ZVAL   =    5.000    mass and valenz                      
   RCORE  =    2.700    outmost cutoff radius                                   
   RWIGS  =    2.500; RWIGS  =    1.323    wigner-seitz radius (au A)           
   ENMAX  =  192.543; ENMIN  =  144.408 eV                                      
   RCLOC  =    1.779    cutoff for local pot                                    
   LCOR   =        T    correct aug charges                                     
   LPAW   =        T    paw PP                                                  
   EAUG   =  358.662                                                            
   DEXC   =    -.034                                                            
   RMAX   =    3.323    core radius for proj-oper                               
   RAUG   =    1.300    factor for augmentation sphere                          
   RDEP   =    2.762    radius for radial grids                                 
   QCUT   =   -3.762; QGAM   =    7.524    optimization parameters              
                                                                                
   Description                                                                  
     l     E      TYP  RCUT    TYP  RCUT                                        
     2   .000     23  2.700                                                     
     2   .000     23  2.700                                                     
     0   .000     23  2.700                                                     
     0  2.000     23  2.700                                                     
     1   .000     23  2.700                                                     
     1  2.000     23  2.700                                                     
     3   .000      7   .000                                                     
  local pseudopotential read in
  partial core-charges read in
  atomic valenz-charges read in
  non local Contribution for L= 2  read in
    real space projection operators read in
  non local Contribution for L= 2  read in
    real space projection operators read in
  non local Contribution for L= 0  read in
    real space projection operators read in
  non local Contribution for L= 0  read in
    real space projection operators read in
  non local Contribution for L= 1  read in
    real space projection operators read in
  non local Contribution for L= 1  read in
    real space projection operators read in
    PAW grid and wavefunctions read in
 
   number of l-projection  operators is LMAX  = 6
   number of lm-projection operators is LMMAX = 18
 
PAW_PBE Rh 06Sep2000                    :
 energy of atom  1       EATOM= -616.5493
 kinetic energy error for atom=    0.6305 (will be added to EATOM!!)
PAW_PBE Sn_d 06Sep2000                  :
 energy of atom  2       EATOM=-1893.0782
 kinetic energy error for atom=    0.8186 (will be added to EATOM!!)
PAW_PBE V 08Apr2002                     :
 energy of atom  3       EATOM= -170.8679
 kinetic energy error for atom=    0.0257 (will be added to EATOM!!)
 
 
 POSCAR: Rh Sn V                                 
  positions in direct lattice
  No initial velocities read in
 exchange correlation table for  LEXCH =        8
   RHO(1)=    0.500       N(1)  =     2000
   RHO(2)=  100.500       N(2)  =     4000
 


--------------------------------------------------------------------------------------------------------


 ion  position               nearest neighbor table
   1  0.000  0.500  0.500-   9 2.73  10 2.73  11 2.73  12 2.73  13 2.73  14 2.73  15 2.73  16 2.73
                             5 2.87   6 2.87   6 2.87   5 2.87
   2  0.500  0.000  0.500-   9 2.73  10 2.73  11 2.73  12 2.73  13 2.73  14 2.73  15 2.73  16 2.73
                             5 2.87   6 2.87   5 2.87   6 2.87
   3  0.500  0.000  0.000-   9 2.73  10 2.73  11 2.73  12 2.73  13 2.73  14 2.73  15 2.73  16 2.73
                             7 2.87   8 2.87   7 2.87   8 2.87
   4  0.000  0.500  0.000-   9 2.73  10 2.73  11 2.73  12 2.73  13 2.73  14 2.73  15 2.73  16 2.73
                             7 2.87   8 2.87   8 2.87   7 2.87
   5  0.500  0.500  0.500-   9 2.73  10 2.73  11 2.73  12 2.73  13 2.73  14 2.73  15 2.73  16 2.73
                             1 2.87   2 2.87   2 2.87   1 2.87
   6  0.000  0.000  0.500-   9 2.73  10 2.73  11 2.73  12 2.73  13 2.73  14 2.73  15 2.73  16 2.73
                             1 2.87   2 2.87   1 2.87   2 2.87
   7  0.500  0.500  0.000-   9 2.73  10 2.73  11 2.73  12 2.73  13 2.73  14 2.73  15 2.73  16 2.73
                             3 2.87   4 2.87   3 2.87   4 2.87
   8  0.000  0.000  0.000-   9 2.73  10 2.73  11 2.73  12 2.73  13 2.73  14 2.73  15 2.73  16 2.73
                             3 2.87   4 2.87   4 2.87   3 2.87
   9  0.250  0.750  0.750-   1 2.73   2 2.73   3 2.73   4 2.73   5 2.73   6 2.73   7 2.73   8 2.73
                            15 2.87  16 2.87  16 2.87  15 2.87
  10  0.750  0.250  0.750-   1 2.73   2 2.73   3 2.73   4 2.73   5 2.73   6 2.73   7 2.73   8 2.73
                            15 2.87  16 2.87  15 2.87  16 2.87
  11  0.750  0.750  0.250-   1 2.73   2 2.73   3 2.73   4 2.73   5 2.73   6 2.73   7 2.73   8 2.73
                            13 2.87  14 2.87  14 2.87  13 2.87
  12  0.250  0.250  0.250-   1 2.73   2 2.73   3 2.73   4 2.73   5 2.73   6 2.73   7 2.73   8 2.73
                            13 2.87  14 2.87  13 2.87  14 2.87
  13  0.250  0.750  0.250-   1 2.73   2 2.73   3 2.73   4 2.73   5 2.73   6 2.73   7 2.73   8 2.73
                            11 2.87  12 2.87  12 2.87  11 2.87
  14  0.750  0.250  0.250-   1 2.73   2 2.73   3 2.73   4 2.73   5 2.73   6 2.73   7 2.73   8 2.73
                            11 2.87  12 2.87  11 2.87  12 2.87
  15  0.750  0.750  0.750-   1 2.73   2 2.73   3 2.73   4 2.73   5 2.73   6 2.73   7 2.73   8 2.73
                             9 2.87  10 2.87  10 2.87   9 2.87
  16  0.250  0.250  0.750-   1 2.73   2 2.73   3 2.73   4 2.73   5 2.73   6 2.73   7 2.73   8 2.73
                             9 2.87  10 2.87   9 2.87  10 2.87
 
  LATTYP: Found a simple tetragonal cell.
 ALAT       =     5.7450000000
 C/A-ratio  =     1.2691035683
  
  Lattice vectors:
  
 A1 = (   5.7450000000,   0.0000000000,   0.0000000000)
 A2 = (   0.0000000000,   5.7450000000,   0.0000000000)
 A3 = (   0.0000000000,   0.0000000000,   7.2910000000)


Analysis of symmetry for initial positions (statically):
=====================================================================
 Subroutine PRICEL returns following result:
 
  LATTYP: Found a body centered tetragonal cell.
 ALAT       =     4.0623284579
 C/A-ratio  =     1.7947834784
  
  Lattice vectors:
  
 A1 = (   0.0000000000,  -2.8725000000,   3.6455000000)
 A2 = (   0.0000000000,   2.8725000000,   3.6455000000)
 A3 = (  -2.8725000000,   0.0000000000,  -3.6455000000)
 
   4 primitive cells build up your supercell.
 

 Routine SETGRP: Setting up the symmetry group for a 
 simple tetragonal supercell.


 Subroutine GETGRP returns: Found 16 space group operations
 (whereof  8 operations were pure point group operations)
 out of a pool of 16 trial point group operations.


The static configuration has the point symmetry D_2d.
 The point group associated with its full space group is D_4h.


Analysis of symmetry for dynamics (positions and initial velocities):
=====================================================================
 Subroutine PRICEL returns following result:
 
  LATTYP: Found a body centered tetragonal cell.
 ALAT       =     4.0623284579
 C/A-ratio  =     1.7947834784
  
  Lattice vectors:
  
 A1 = (   0.0000000000,  -2.8725000000,   3.6455000000)
 A2 = (   0.0000000000,   2.8725000000,   3.6455000000)
 A3 = (  -2.8725000000,   0.0000000000,  -3.6455000000)
 
   4 primitive cells build up your supercell.
 

 Routine SETGRP: Setting up the symmetry group for a 
 simple tetragonal supercell.


 Subroutine GETGRP returns: Found 16 space group operations
 (whereof  8 operations were pure point group operations)
 out of a pool of 16 trial point group operations.


The dynamic configuration has the point symmetry D_2d.
 The point group associated with its full space group is D_4h.


Analysis of magnetic symmetry:
=====================================================================

 Subroutine MAGSYM returns: Found 16 space group operations
 (whereof  8 operations were pure point group operations)
 out of a pool of 16 trial space group operations
 (whereof  8 operations were pure point group operations)
 and found also     4 'primitive' translations


The magnetic configuration has the point symmetry D_2d.
 The point group associated with its full space group is D_4h.
 
 
 KPOINTS: KPOINTS                                 

Automatic generation of k-mesh.
Space group operators:
 irot       det(A)        alpha          n_x          n_y          n_z        tau_x        tau_y        tau_z
    1     1.000000     0.000000     1.000000     0.000000     0.000000    -0.000000     0.000000     0.000000
    2    -1.000000    90.000000     0.000000     0.000000    -1.000000    -0.000000     0.000000     0.000000
    3     1.000000   180.000000     0.000000     0.000000     1.000000    -0.000000     0.000000     0.000000
    4    -1.000000    90.000000     0.000000     0.000000     1.000000    -0.000000     0.000000     0.000000
    5     1.000000   180.000000     0.000000     1.000000     0.000000    -0.000000     0.000000     0.000000
    6    -1.000000   180.000000     0.707107     0.707107     0.000000    -0.000000     0.000000     0.000000
    7     1.000000   180.000000     1.000000     0.000000     0.000000    -0.000000     0.000000     0.000000
    8    -1.000000   180.000000     0.707107    -0.707107     0.000000    -0.000000     0.000000     0.000000
    9    -1.000000     0.000000     1.000000     0.000000     0.000000    -0.000000     0.000000     0.500000
   10     1.000000    90.000000     0.000000     0.000000    -1.000000    -0.000000     0.000000     0.500000
   11    -1.000000   180.000000     0.000000     0.000000     1.000000    -0.000000     0.000000     0.500000
   12     1.000000    90.000000     0.000000     0.000000     1.000000    -0.000000     0.000000     0.500000
   13    -1.000000   180.000000     0.000000     1.000000     0.000000    -0.000000     0.000000     0.500000
   14     1.000000   180.000000     0.707107     0.707107     0.000000    -0.000000     0.000000     0.500000
   15    -1.000000   180.000000     1.000000     0.000000     0.000000    -0.000000     0.000000     0.500000
   16     1.000000   180.000000     0.707107    -0.707107     0.000000    -0.000000     0.000000     0.500000
 
 Subroutine IBZKPT returns following result:
 ===========================================
 
 Found     30 irreducible k-points:
 
 Following reciprocal coordinates:
            Coordinates               Weight
  0.000000  0.000000  0.000000      1.000000
  0.142857  0.000000  0.000000      4.000000
  0.285714  0.000000  0.000000      4.000000
  0.428571  0.000000  0.000000      4.000000
  0.142857  0.142857  0.000000      4.000000
  0.285714  0.142857  0.000000      8.000000
  0.428571  0.142857  0.000000      8.000000
  0.285714  0.285714  0.000000      4.000000
  0.428571  0.285714  0.000000      8.000000
  0.428571  0.428571  0.000000      4.000000
  0.000000  0.000000  0.200000      2.000000
  0.142857  0.000000  0.200000      8.000000
  0.285714  0.000000  0.200000      8.000000
  0.428571  0.000000  0.200000      8.000000
  0.142857  0.142857  0.200000      8.000000
  0.285714  0.142857  0.200000     16.000000
  0.428571  0.142857  0.200000     16.000000
  0.285714  0.285714  0.200000      8.000000
  0.428571  0.285714  0.200000     16.000000
  0.428571  0.428571  0.200000      8.000000
  0.000000  0.000000  0.400000      2.000000
  0.142857  0.000000  0.400000      8.000000
  0.285714  0.000000  0.400000      8.000000
  0.428571  0.000000  0.400000      8.000000
  0.142857  0.142857  0.400000      8.000000
  0.285714  0.142857  0.400000     16.000000
  0.428571  0.142857  0.400000     16.000000
  0.285714  0.285714  0.400000      8.000000
  0.428571  0.285714  0.400000     16.000000
  0.428571  0.428571  0.400000      8.000000
 
 Following cartesian coordinates:
            Coordinates               Weight
  0.000000  0.000000  0.000000      1.000000
  0.024866  0.000000  0.000000      4.000000
  0.049733  0.000000  0.000000      4.000000
  0.074599  0.000000  0.000000      4.000000
  0.024866  0.024866  0.000000      4.000000
  0.049733  0.024866  0.000000      8.000000
  0.074599  0.024866  0.000000      8.000000
  0.049733  0.049733  0.000000      4.000000
  0.074599  0.049733  0.000000      8.000000
  0.074599  0.074599  0.000000      4.000000
  0.000000  0.000000  0.027431      2.000000
  0.024866  0.000000  0.027431      8.000000
  0.049733  0.000000  0.027431      8.000000
  0.074599  0.000000  0.027431      8.000000
  0.024866  0.024866  0.027431      8.000000
  0.049733  0.024866  0.027431     16.000000
  0.074599  0.024866  0.027431     16.000000
  0.049733  0.049733  0.027431      8.000000
  0.074599  0.049733  0.027431     16.000000
  0.074599  0.074599  0.027431      8.000000
  0.000000  0.000000  0.054862      2.000000
  0.024866  0.000000  0.054862      8.000000
  0.049733  0.000000  0.054862      8.000000
  0.074599  0.000000  0.054862      8.000000
  0.024866  0.024866  0.054862      8.000000
  0.049733  0.024866  0.054862     16.000000
  0.074599  0.024866  0.054862     16.000000
  0.049733  0.049733  0.054862      8.000000
  0.074599  0.049733  0.054862     16.000000
  0.074599  0.074599  0.054862      8.000000
 


--------------------------------------------------------------------------------------------------------




 Dimension of arrays:
   k-points           NKPTS =     30   k-points in BZ     NKDIM =     30   number of bands    NBANDS=    118
   number of dos      NEDOS =    301   number of ions     NIONS =     16
   non local maximal  LDIM  =      6   non local SUM 2l+1 LMDIM =     18
   total plane-waves  NPLWV =   9600
   max r-space proj   IRMAX =      1   max aug-charges    IRDMAX=   1333
   dimension x,y,z NGX =    20 NGY =   20 NGZ =   24
   dimension x,y,z NGXF=    30 NGYF=   30 NGZF=   40
   support grid    NGXF=    30 NGYF=   30 NGZF=   40
   ions per type =               8   4   4
 NGX,Y,Z   is equivalent  to a cutoff of   5.79,  5.79,  5.47 a.u.
 NGXF,Y,Z  is equivalent  to a cutoff of   8.68,  8.68,  9.12 a.u.


 I would recommend the setting:
   dimension x,y,z NGX =    19 NGY =   19 NGZ =   24
 SYSTEM =  unknown system                          
 POSCAR =  Rh Sn V                                 

 Startparameter for this run:
   NWRITE =      2    write-flag & timer
   PREC   = low       normal or accurate (medium, high low for compatibility)
   ISTART =      0    job   : 0-new  1-cont  2-samecut
   ICHARG =      1    charge: 1-file 2-atom 10-const
   ISPIN  =      2    spin polarized calculation?
   LNONCOLLINEAR =      F non collinear calculations
   LSORBIT =      F    spin-orbit coupling
   INIWAV =      1    electr: 0-lowe 1-rand  2-diag
   LASPH  =      F    aspherical Exc in radial PAW
   METAGGA=      F    non-selfconsistent MetaGGA calc.

 Electronic Relaxation 1
   ENCUT  =  180.8 eV  13.29 Ry    3.65 a.u.   6.30  6.30  7.99*2*pi/ulx,y,z
   ENINI  =  180.8     initial cutoff
   ENAUG  =  439.8 eV  augmentation charge cutoff
   NELM   =     60;   NELMIN=  2; NELMDL=  0     # of ELM steps 
   EDIFF  = 0.1E-03   stopping-criterion for ELM
   LREAL  =      F    real-space projection
   NLSPLINE    = F    spline interpolate recip. space projectors
   LCOMPAT=      F    compatible to vasp.4.4
   GGA_COMPAT  = T    GGA compatible to vasp.4.4-vasp.4.6
   LMAXPAW     = -100 max onsite density
   LMAXMIX     =    2 max onsite mixed and CHGCAR
   VOSKOWN=      0    Vosko Wilk Nusair interpolation
   ROPT   =    0.00000   0.00000   0.00000
 Ionic relaxation
   EDIFFG = 0.1E-02   stopping-criterion for IOM
   NSW    =      0    number of steps for IOM
   NBLOCK =      1;   KBLOCK =      1    inner block; outer block 
   IBRION =     -1    ionic relax: 0-MD 1-quasi-New 2-CG
   NFREE  =      0    steps in history (QN), initial steepest desc. (CG)
   ISIF   =      2    stress and relaxation
   IWAVPR =     10    prediction:  0-non 1-charg 2-wave 3-comb
   ISYM   =      1    0-nonsym 1-usesym 2-fastsym
   LCORR  =      T    Harris-Foulkes like correction to forces

   POTIM  = 0.5000    time-step for ionic-motion
   TEIN   =    0.0    initial temperature
   TEBEG  =    0.0;   TEEND  =   0.0 temperature during run
   SMASS  =  -3.00    Nose mass-parameter (am)
   estimated Nose-frequenzy (Omega)   =  0.10E-29 period in steps =****** mass=  -0.754E-27a.u.
   SCALEE = 1.0000    scale energy and forces
   NPACO  =    256;   APACO  = 16.0  distance and # of slots for P.C.
   PSTRESS=    0.0 pullay stress

  Mass of Ions in am
   POMASS = 102.91118.71 50.94
  Ionic Valenz
   ZVAL   =   9.00 14.00  5.00
  Atomic Wigner-Seitz radii
   RWIGS  =  -1.00 -1.00 -1.00
  virtual crystal weights 
   VCA    =   1.00  1.00  1.00
   NELECT =     148.0000    total number of electrons
   NUPDOWN=      -1.0000    fix difference up-down

 DOS related values:
   EMIN   =  10.00;   EMAX   =-10.00  energy-range for DOS
   EFERMI =   0.00
   ISMEAR =     0;   SIGMA  =   0.20  broadening in eV -4-tet -1-fermi 0-gaus

 Electronic relaxation 2 (details)
   IALGO  =     68    algorithm
   LDIAG  =      T    sub-space diagonalisation (order eigenvalues)
   LSUBROT=      T    optimize rotation matrix (better conditioning)
   TURBO    =      0    0=normal 1=particle mesh
   IRESTART =      0    0=no restart 2=restart with 2 vectors
   NREBOOT  =      0    no. of reboots
   NMIN     =      0    reboot dimension
   EREF     =   0.00    reference energy to select bands
   IMIX   =      4    mixing-type and parameters
     AMIX     =   0.40;   BMIX     =  1.00
     AMIX_MAG =   1.60;   BMIX_MAG =  1.00
     AMIN     =   0.10
     WC   =   100.;   INIMIX=   1;  MIXPRE=   1;  MAXMIX= -45

 Intra band minimization:
   WEIMIN = 0.0000     energy-eigenvalue tresh-hold
   EBREAK =  0.21E-06  absolut break condition
   DEPER  =   0.30     relativ break condition  

   TIME   =   0.40     timestep for ELM

  volume/ion in A,a.u.               =      15.04       101.49
  Fermi-wavevector in a.u.,A,eV,Ry     =   1.392215  2.630905 26.371669  1.938263
  Thomas-Fermi vector in A             =   2.515979
 
 Write flags
   LWAVE  =      F    write WAVECAR
   LCHARG =      T    write CHGCAR
   LVTOT  =      F    write LOCPOT, total local potential
   LVHAR  =      T    write LOCPOT, Hartree potential only
   LELF   =      F    write electronic localiz. function (ELF)
   LORBIT =     11    0 simple, 1 ext, 2 COOP (PROOUT)


 Dipole corrections
   LMONO  =      F    monopole corrections only (constant potential shift)
   LDIPOL =      F    correct potential (dipole corrections)
   IDIPOL =      0    1-x, 2-y, 3-z, 4-all directions 
   EPSILON=  1.0000000 bulk dielectric constant

 Exchange correlation treatment:
   GGA     =    --    GGA type
   LEXCH   =     8    internal setting for exchange type
   VOSKOWN=      0    Vosko Wilk Nusair interpolation
   LHFCALC =     F    Hartree Fock is set to
   LHFONE  =     F    Hartree Fock one center treatment
   AEXX    =    0.0000 exact exchange contribution

 Linear response parameters
   LEPSILON=     F    determine dielectric tensor
   LRPA    =     F    only Hartree local field effects (RPA)
   LNABLA  =     F    use nabla operator in PAW spheres
   LVEL    =     F    velocity operator in full k-point grid
   LINTERFAST=   F  fast interpolation
   KINTER  =     0    interpolate to denser k-point grid
   CSHIFT  =0.1000    complex shift for real part using Kramers Kronig
   OMEGAMAX=  -1.0    maximum frequency
   DEG_THRESHOLD= 0.2000000E-02 threshold for treating states as degnerate
   RTIME   =    0.100 relaxation time in fs

 Orbital magnetization related:
   ORBITALMAG=     F  switch on orbital magnetization
   LCHIMAG   =     F  perturbation theory with respect to B field
   DQ        =  0.001000  dq finite difference perturbation B field



--------------------------------------------------------------------------------------------------------


 Static calculation
 charge density and potential will be updated during run
 spin polarized calculation
 RMM-DIIS sequential band-by-band and
  variant of blocked Davidson during initial phase
 perform sub-space diagonalisation
    before iterative eigenvector-optimisation
 modified Broyden-mixing scheme, WC =      100.0
 initial mixing is a Kerker type mixing with AMIX =  0.4000 and BMIX =      1.0000
 Hartree-type preconditioning will be used
 using additional bands  44
 reciprocal scheme for non local part
 use partial core corrections
 calculate Harris-corrections to forces   (improved forces if not selfconsistent)
 use gradient corrections 
 use of overlap-Matrix (Vanderbilt PP)
 Gauss-broadening in eV      SIGMA  =   0.20


--------------------------------------------------------------------------------------------------------


  energy-cutoff  :      180.82
  volume of cell :      240.64
      direct lattice vectors                 reciprocal lattice vectors
     5.745000000  0.000000000  0.000000000     0.174064404  0.000000000  0.000000000
     0.000000000  5.745000000  0.000000000     0.000000000  0.174064404  0.000000000
     0.000000000  0.000000000  7.291000000     0.000000000  0.000000000  0.137155397

  length of vectors
     5.745000000  5.745000000  7.291000000     0.174064404  0.174064404  0.137155397


 
 k-points in units of 2pi/SCALE and weight: KPOINTS                                 
   0.00000000  0.00000000  0.00000000       0.004
   0.02486634  0.00000000  0.00000000       0.016
   0.04973269  0.00000000  0.00000000       0.016
   0.07459903  0.00000000  0.00000000       0.016
   0.02486634  0.02486634  0.00000000       0.016
   0.04973269  0.02486634  0.00000000       0.033
   0.07459903  0.02486634  0.00000000       0.033
   0.04973269  0.04973269  0.00000000       0.016
   0.07459903  0.04973269  0.00000000       0.033
   0.07459903  0.07459903  0.00000000       0.016
   0.00000000  0.00000000  0.02743108       0.008
   0.02486634  0.00000000  0.02743108       0.033
   0.04973269  0.00000000  0.02743108       0.033
   0.07459903  0.00000000  0.02743108       0.033
   0.02486634  0.02486634  0.02743108       0.033
   0.04973269  0.02486634  0.02743108       0.065
   0.07459903  0.02486634  0.02743108       0.065
   0.04973269  0.04973269  0.02743108       0.033
   0.07459903  0.04973269  0.02743108       0.065
   0.07459903  0.07459903  0.02743108       0.033
   0.00000000  0.00000000  0.05486216       0.008
   0.02486634  0.00000000  0.05486216       0.033
   0.04973269  0.00000000  0.05486216       0.033
   0.07459903  0.00000000  0.05486216       0.033
   0.02486634  0.02486634  0.05486216       0.033
   0.04973269  0.02486634  0.05486216       0.065
   0.07459903  0.02486634  0.05486216       0.065
   0.04973269  0.04973269  0.05486216       0.033
   0.07459903  0.04973269  0.05486216       0.065
   0.07459903  0.07459903  0.05486216       0.033
 
 k-points in reciprocal lattice and weights: KPOINTS                                 
   0.00000000  0.00000000  0.00000000       0.004
   0.14285714  0.00000000  0.00000000       0.016
   0.28571429  0.00000000  0.00000000       0.016
   0.42857143  0.00000000  0.00000000       0.016
   0.14285714  0.14285714  0.00000000       0.016
   0.28571429  0.14285714  0.00000000       0.033
   0.42857143  0.14285714  0.00000000       0.033
   0.28571429  0.28571429  0.00000000       0.016
   0.42857143  0.28571429  0.00000000       0.033
   0.42857143  0.42857143  0.00000000       0.016
   0.00000000  0.00000000  0.20000000       0.008
   0.14285714  0.00000000  0.20000000       0.033
   0.28571429  0.00000000  0.20000000       0.033
   0.42857143  0.00000000  0.20000000       0.033
   0.14285714  0.14285714  0.20000000       0.033
   0.28571429  0.14285714  0.20000000       0.065
   0.42857143  0.14285714  0.20000000       0.065
   0.28571429  0.28571429  0.20000000       0.033
   0.42857143  0.28571429  0.20000000       0.065
   0.42857143  0.42857143  0.20000000       0.033
   0.00000000  0.00000000  0.40000000       0.008
   0.14285714  0.00000000  0.40000000       0.033
   0.28571429  0.00000000  0.40000000       0.033
   0.42857143  0.00000000  0.40000000       0.033
   0.14285714  0.14285714  0.40000000       0.033
   0.28571429  0.14285714  0.40000000       0.065
   0.42857143  0.14285714  0.40000000       0.065
   0.28571429  0.28571429  0.40000000       0.033
   0.42857143  0.28571429  0.40000000       0.065
   0.42857143  0.42857143  0.40000000       0.033
 
 position of ions in fractional coordinates (direct lattice) 
   0.00000000  0.50000000  0.50000000
   0.50000000  0.00000000  0.50000000
   0.50000000  0.00000000  0.00000000
   0.00000000  0.50000000  0.00000000
   0.50000000  0.50000000  0.50000000
   0.00000000  0.00000000  0.50000000
   0.50000000  0.50000000  0.00000000
   0.00000000  0.00000000  0.00000000
   0.25000000  0.75000000  0.75000000
   0.75000000  0.25000000  0.75000000
   0.75000000  0.75000000  0.25000000
   0.25000000  0.25000000  0.25000000
   0.25000000  0.75000000  0.25000000
   0.75000000  0.25000000  0.25000000
   0.75000000  0.75000000  0.75000000
   0.25000000  0.25000000  0.75000000
 
 position of ions in cartesian coordinates  (Angst):
   0.00000000  2.87250000  3.64550000
   2.87250000  0.00000000  3.64550000
   2.87250000  0.00000000  0.00000000
   0.00000000  2.87250000  0.00000000
   2.87250000  2.87250000  3.64550000
   0.00000000  0.00000000  3.64550000
   2.87250000  2.87250000  0.00000000
   0.00000000  0.00000000  0.00000000
   1.43625000  4.30875000  5.46825000
   4.30875000  1.43625000  5.46825000
   4.30875000  4.30875000  1.82275000
   1.43625000  1.43625000  1.82275000
   1.43625000  4.30875000  1.82275000
   4.30875000  1.43625000  1.82275000
   4.30875000  4.30875000  5.46825000
   1.43625000  1.43625000  5.46825000
 


--------------------------------------------------------------------------------------------------------


 k-point  1 :   0.0000 0.0000 0.0000  plane waves:    1327
 k-point  2 :   0.1429 0.0000 0.0000  plane waves:    1323
 k-point  3 :   0.2857 0.0000 0.0000  plane waves:    1333
 k-point  4 :   0.4286 0.0000 0.0000  plane waves:    1332
 k-point  5 :   0.1429 0.1429 0.0000  plane waves:    1317
 k-point  6 :   0.2857 0.1429 0.0000  plane waves:    1326
 k-point  7 :   0.4286 0.1429 0.0000  plane waves:    1321
 k-point  8 :   0.2857 0.2857 0.0000  plane waves:    1329
 k-point  9 :   0.4286 0.2857 0.0000  plane waves:    1314
 k-point 10 :   0.4286 0.4286 0.0000  plane waves:    1323
 k-point 11 :   0.0000 0.0000 0.2000  plane waves:    1312
 k-point 12 :   0.1429 0.0000 0.2000  plane waves:    1325
 k-point 13 :   0.2857 0.0000 0.2000  plane waves:    1334
 k-point 14 :   0.4286 0.0000 0.2000  plane waves:    1337
 k-point 15 :   0.1429 0.1429 0.2000  plane waves:    1331
 k-point 16 :   0.2857 0.1429 0.2000  plane waves:    1329
 k-point 17 :   0.4286 0.1429 0.2000  plane waves:    1329
 k-point 18 :   0.2857 0.2857 0.2000  plane waves:    1329
 k-point 19 :   0.4286 0.2857 0.2000  plane waves:    1323
 k-point 20 :   0.4286 0.4286 0.2000  plane waves:    1319
 k-point 21 :   0.0000 0.0000 0.4000  plane waves:    1332
 k-point 22 :   0.1429 0.0000 0.4000  plane waves:    1343
 k-point 23 :   0.2857 0.0000 0.4000  plane waves:    1333
 k-point 24 :   0.4286 0.0000 0.4000  plane waves:    1326
 k-point 25 :   0.1429 0.1429 0.4000  plane waves:    1332
 k-point 26 :   0.2857 0.1429 0.4000  plane waves:    1330
 k-point 27 :   0.4286 0.1429 0.4000  plane waves:    1334
 k-point 28 :   0.2857 0.2857 0.4000  plane waves:    1323
 k-point 29 :   0.4286 0.2857 0.4000  plane waves:    1329
 k-point 30 :   0.4286 0.4286 0.4000  plane waves:    1335

 maximum and minimum number of plane-waves per node :       125      100

 maximum number of plane-waves:      1343
 maximum index in each direction: 
   IXMAX=    6   IYMAX=    6   IZMAX=    7
   IXMIN=   -6   IYMIN=   -6   IZMIN=   -8

 WARNING: aliasing errors must be expected set NGX to  26 to avoid them
 WARNING: aliasing errors must be expected set NGY to  26 to avoid them
 WARNING: aliasing errors must be expected set NGZ to  32 to avoid them
 aliasing errors are usually negligible using standard VASP settings
 and one can safely disregard these warnings

 parallel 3D FFT for wavefunctions:
    minimum data exchange during FFTs selected (reduces bandwidth)
 parallel 3D FFT for charge:
    minimum data exchange during FFTs selected (reduces bandwidth)


 total amount of memory used by VASP on root node    41306. kBytes
========================================================================

   base      :      30000. kBytes
   nonl-proj :       1665. kBytes
   fftplans  :        107. kBytes
   grid      :        297. kBytes
   one-center:         62. kBytes
   wavefun   :       9175. kBytes
 
 Broyden mixing: mesh for mixing (old mesh)
   NGX = 13   NGY = 13   NGZ = 15
  (NGX  = 30   NGY  = 30   NGZ  = 40)
  gives a total of   2535 points

 initial charge density was supplied:
 charge density of overlapping atoms calculated
 number of electron     148.0000000 magnetization      60.0000000
 keeping initial charge density in first step


--------------------------------------------------------------------------------------------------------


 Maximum index for augmentation-charges  134 (set IRDMAX)


--------------------------------------------------------------------------------------------------------


 First call to EWALD:  gamma=   0.285
 Maximum number of real-space cells 3x 3x 2
 Maximum number of reciprocal cells 3x 3x 3

 FEWALD executed in parallel
    FEWALD:  cpu time    0.00: real time    0.00


----------------------------------------- Iteration    1(   1)  ---------------------------------------


    POTLOK:  cpu time    0.02: real time    0.02
    SETDIJ:  cpu time    0.02: real time    0.01
     EDDAV:  cpu time    7.88: real time    7.88
       DOS:  cpu time    0.02: real time    0.02
    --------------------------------------------
      LOOP:  cpu time    8.04: real time    8.05

 eigenvalue-minimisations  : 14600
 total energy-change (2. order) : 0.9063210E+03  (-0.3084551E+04)
 number of electron     148.0000000 magnetization      60.0000000
 augmentation part      148.0000000 magnetization      60.0000000

 Free energy of the ion-electron system (eV)
  ---------------------------------------------------
  alpha Z        PSCENC =       925.10232276
  Ewald energy   TEWEN  =    -12209.12187300
  -1/2 Hartree   DENC   =     -2552.19909580
  -exchange  EXHF       =         0.00000000
  -V(xc)+E(xc)   XCENC  =       -55.01621608
  PAW double counting   =     10150.01634036    -9766.87283966
  entropy T*S    EENTRO =        -0.16447671
  eigenvalues    EBANDS =      1234.81933588
  atomic energy  EATOM  =     13179.75745913
  ---------------------------------------------------
  free energy    TOTEN  =       906.32095688 eV

  energy without entropy =      906.48543359  energy(sigma->0) =      906.40319523


--------------------------------------------------------------------------------------------------------




----------------------------------------- Iteration    1(   2)  ---------------------------------------


     EDDAV:  cpu time    7.76: real time    7.76
       DOS:  cpu time    0.02: real time    0.02
    --------------------------------------------
      LOOP:  cpu time    7.78: real time    7.79

 eigenvalue-minimisations  : 14364
 total energy-change (2. order) :-0.8954161E+03  (-0.8179011E+03)
 number of electron     148.0000000 magnetization      60.0000000
 augmentation part      148.0000000 magnetization      60.0000000

 Free energy of the ion-electron system (eV)
  ---------------------------------------------------
  alpha Z        PSCENC =       925.10232276
  Ewald energy   TEWEN  =    -12209.12187300
  -1/2 Hartree   DENC   =     -2552.19909580
  -exchange  EXHF       =         0.00000000
  -V(xc)+E(xc)   XCENC  =       -55.01621608
  PAW double counting   =     10150.01634036    -9766.87283966
  entropy T*S    EENTRO =        -0.24722912
  eigenvalues    EBANDS =       339.48600909
  atomic energy  EATOM  =     13179.75745913
  ---------------------------------------------------
  free energy    TOTEN  =        10.90487768 eV

  energy without entropy =       11.15210680  energy(sigma->0) =       11.02849224


--------------------------------------------------------------------------------------------------------




----------------------------------------- Iteration    1(   3)  ---------------------------------------


     EDDAV:  cpu time    7.98: real time    7.98
       DOS:  cpu time    0.02: real time    0.02
    --------------------------------------------
      LOOP:  cpu time    8.00: real time    8.00

 eigenvalue-minimisations  : 14872
 total energy-change (2. order) :-0.1000706E+03  (-0.9155078E+02)
 number of electron     148.0000000 magnetization      60.0000000
 augmentation part      148.0000000 magnetization      60.0000000

 Free energy of the ion-electron system (eV)
  ---------------------------------------------------
  alpha Z        PSCENC =       925.10232276
  Ewald energy   TEWEN  =    -12209.12187300
  -1/2 Hartree   DENC   =     -2552.19909580
  -exchange  EXHF       =         0.00000000
  -V(xc)+E(xc)   XCENC  =       -55.01621608
  PAW double counting   =     10150.01634036    -9766.87283966
  entropy T*S    EENTRO =        -0.34905096
  eigenvalues    EBANDS =       239.51725118
  atomic energy  EATOM  =     13179.75745913
  ---------------------------------------------------
  free energy    TOTEN  =       -89.16570207 eV

  energy without entropy =      -88.81665111  energy(sigma->0) =      -88.99117659


--------------------------------------------------------------------------------------------------------




----------------------------------------- Iteration    1(   4)  ---------------------------------------


     EDDAV:  cpu time    8.52: real time    8.52
       DOS:  cpu time    0.02: real time    0.02
    --------------------------------------------
      LOOP:  cpu time    8.54: real time    8.55

 eigenvalue-minimisations  : 16122
 total energy-change (2. order) :-0.3055810E+01  (-0.3018504E+01)
 number of electron     148.0000000 magnetization      60.0000000
 augmentation part      148.0000000 magnetization      60.0000000

 Free energy of the ion-electron system (eV)
  ---------------------------------------------------
  alpha Z        PSCENC =       925.10232276
  Ewald energy   TEWEN  =    -12209.12187300
  -1/2 Hartree   DENC   =     -2552.19909580
  -exchange  EXHF       =         0.00000000
  -V(xc)+E(xc)   XCENC  =       -55.01621608
  PAW double counting   =     10150.01634036    -9766.87283966
  entropy T*S    EENTRO =        -0.35026219
  eigenvalues    EBANDS =       236.46265193
  atomic energy  EATOM  =     13179.75745913
  ---------------------------------------------------
  free energy    TOTEN  =       -92.22151255 eV

  energy without entropy =      -91.87125036  energy(sigma->0) =      -92.04638145


--------------------------------------------------------------------------------------------------------




----------------------------------------- Iteration    1(   5)  ---------------------------------------


     EDDAV:  cpu time   10.38: real time   10.38
       DOS:  cpu time    0.02: real time    0.02
    CHARGE:  cpu time    0.34: real time    0.34
    MIXING:  cpu time    0.00: real time    0.00
    --------------------------------------------
      LOOP:  cpu time   10.74: real time   10.75

 eigenvalue-minimisations  : 20544
 total energy-change (2. order) :-0.1126740E+00  (-0.1126416E+00)
 number of electron     148.0006492 magnetization      27.5187153
 augmentation part       61.4174732 magnetization      21.5565188

 Broyden mixing:
  rms(total) = 0.55700E+01    rms(broyden)= 0.55683E+01
  rms(prec ) = 0.62272E+01
  weight for this iteration     100.00

 Free energy of the ion-electron system (eV)
  ---------------------------------------------------
  alpha Z        PSCENC =       925.10232276
  Ewald energy   TEWEN  =    -12209.12187300
  -1/2 Hartree   DENC   =     -2552.19909580
  -exchange  EXHF       =         0.00000000
  -V(xc)+E(xc)   XCENC  =       -55.01621608
  PAW double counting   =     10150.01634036    -9766.87283966
  entropy T*S    EENTRO =        -0.35036716
  eigenvalues    EBANDS =       236.35008293
  atomic energy  EATOM  =     13179.75745913
  ---------------------------------------------------
  free energy    TOTEN  =       -92.33418652 eV

  energy without entropy =      -91.98381936  energy(sigma->0) =      -92.15900294


--------------------------------------------------------------------------------------------------------




----------------------------------------- Iteration    1(   6)  ---------------------------------------


    POTLOK:  cpu time    0.01: real time    0.01
    SETDIJ:  cpu time    0.01: real time    0.01
    EDDIAG:  cpu time    1.89: real time    1.89
  RMM-DIIS:  cpu time    4.49: real time    4.49
    ORTHCH:  cpu time    0.42: real time    0.41
       DOS:  cpu time    0.02: real time    0.03
    CHARGE:  cpu time    0.35: real time    0.35
    MIXING:  cpu time    0.00: real time    0.00
    --------------------------------------------
      LOOP:  cpu time    7.20: real time    7.20

 eigenvalue-minimisations  : 15748
 total energy-change (2. order) :-0.2556161E+02  (-0.6248485E+01)
 number of electron     148.0003092 magnetization      22.9792117
 augmentation part       67.2241038 magnetization      15.9644179

 Broyden mixing:
  rms(total) = 0.41900E+01    rms(broyden)= 0.41864E+01
  rms(prec ) = 0.75515E+01
  weight for this iteration     100.00

 eigenvalues of (default mixing * dielectric matrix)
  average eigenvalue GAMMA=   0.7172
  0.7172

 Free energy of the ion-electron system (eV)
  ---------------------------------------------------
  alpha Z        PSCENC =       925.10232276
  Ewald energy   TEWEN  =    -12209.12187300
  -1/2 Hartree   DENC   =     -2496.91764969
  -exchange  EXHF       =         0.00000000
  -V(xc)+E(xc)   XCENC  =       -79.46487848
  PAW double counting   =     10572.40979391   -10193.46425854
  entropy T*S    EENTRO =        -0.42071172
  eigenvalues    EBANDS =       184.22399824
  atomic energy  EATOM  =     13179.75745913
  ---------------------------------------------------
  free energy    TOTEN  =      -117.89579739 eV

  energy without entropy =     -117.47508567  energy(sigma->0) =     -117.68544153


--------------------------------------------------------------------------------------------------------




----------------------------------------- Iteration    1(   7)  ---------------------------------------


    POTLOK:  cpu time    0.01: real time    0.01
    SETDIJ:  cpu time    0.01: real time    0.01
    EDDIAG:  cpu time    1.89: real time    1.89
  RMM-DIIS:  cpu time    4.07: real time    4.07
    ORTHCH:  cpu time    0.41: real time    0.41
       DOS:  cpu time    0.02: real time    0.02
    CHARGE:  cpu time    0.33: real time    0.33
    MIXING:  cpu time    0.00: real time    0.00
    --------------------------------------------
      LOOP:  cpu time    6.75: real time    6.75

 eigenvalue-minimisations  : 14277
 total energy-change (2. order) :-0.7824121E+01  (-0.2454699E+01)
 number of electron     148.0007913 magnetization      12.3552785
 augmentation part       64.1381087 magnetization       8.8977510

 Broyden mixing:
  rms(total) = 0.32157E+01    rms(broyden)= 0.32110E+01
  rms(prec ) = 0.58314E+01
  weight for this iteration     100.00

 eigenvalues of (default mixing * dielectric matrix)
  average eigenvalue GAMMA=   0.6249
  0.9913  0.2585

 Free energy of the ion-electron system (eV)
  ---------------------------------------------------
  alpha Z        PSCENC =       925.10232276
  Ewald energy   TEWEN  =    -12209.12187300
  -1/2 Hartree   DENC   =     -2425.00704010
  -exchange  EXHF       =         0.00000000
  -V(xc)+E(xc)   XCENC  =       -85.54102698
  PAW double counting   =     10538.30580944   -10166.94516658
  entropy T*S    EENTRO =        -0.15333568
  eigenvalues    EBANDS =       117.88293267
  atomic energy  EATOM  =     13179.75745913
  ---------------------------------------------------
  free energy    TOTEN  =      -125.71991834 eV

  energy without entropy =     -125.56658266  energy(sigma->0) =     -125.64325050


--------------------------------------------------------------------------------------------------------




----------------------------------------- Iteration    1(   8)  ---------------------------------------


    POTLOK:  cpu time    0.01: real time    0.01
    SETDIJ:  cpu time    0.01: real time    0.01
    EDDIAG:  cpu time    1.90: real time    1.89
  RMM-DIIS:  cpu time    4.47: real time    4.48
    ORTHCH:  cpu time    0.42: real time    0.41
       DOS:  cpu time    0.02: real time    0.03
    CHARGE:  cpu time    0.35: real time    0.35
    MIXING:  cpu time    0.00: real time    0.00
    --------------------------------------------
      LOOP:  cpu time    7.18: real time    7.19

 eigenvalue-minimisations  : 15670
 total energy-change (2. order) : 0.1163445E+02  (-0.8221758E+00)
 number of electron     148.0006151 magnetization       5.0643062
 augmentation part       64.2815095 magnetization       2.7247428

 Broyden mixing:
  rms(total) = 0.11738E+01    rms(broyden)= 0.11725E+01
  rms(prec ) = 0.19624E+01
  weight for this iteration     100.00

 eigenvalues of (default mixing * dielectric matrix)
  average eigenvalue GAMMA=   0.8526
  0.2617  0.8220  1.4742

 Free energy of the ion-electron system (eV)
  ---------------------------------------------------
  alpha Z        PSCENC =       925.10232276
  Ewald energy   TEWEN  =    -12209.12187300
  -1/2 Hartree   DENC   =     -2430.78508823
  -exchange  EXHF       =         0.00000000
  -V(xc)+E(xc)   XCENC  =       -87.96714320
  PAW double counting   =     10795.54600887   -10424.84684183
  entropy T*S    EENTRO =        -0.23506432
  eigenvalues    EBANDS =       138.46475061
  atomic energy  EATOM  =     13179.75745913
  ---------------------------------------------------
  free energy    TOTEN  =      -114.08546921 eV

  energy without entropy =     -113.85040489  energy(sigma->0) =     -113.96793705


--------------------------------------------------------------------------------------------------------




----------------------------------------- Iteration    1(   9)  ---------------------------------------


    POTLOK:  cpu time    0.00: real time    0.01
    SETDIJ:  cpu time    0.01: real time    0.01
    EDDIAG:  cpu time    1.90: real time    1.89
  RMM-DIIS:  cpu time    4.50: real time    4.50
    ORTHCH:  cpu time    0.41: real time    0.41
       DOS:  cpu time    0.03: real time    0.03
    CHARGE:  cpu time    0.34: real time    0.35
    MIXING:  cpu time    0.00: real time    0.00
    --------------------------------------------
      LOOP:  cpu time    7.20: real time    7.21

 eigenvalue-minimisations  : 15697
 total energy-change (2. order) : 0.5519989E+00  (-0.3161854E+00)
 number of electron     148.0004961 magnetization       4.7343617
 augmentation part       65.3584008 magnetization       2.9897551

 Broyden mixing:
  rms(total) = 0.45598E+00    rms(broyden)= 0.45066E+00
  rms(prec ) = 0.74405E+00
  weight for this iteration     100.00

 eigenvalues of (default mixing * dielectric matrix)
  average eigenvalue GAMMA=   0.8941
  1.6252  0.2672  0.9896  0.6943

 Free energy of the ion-electron system (eV)
  ---------------------------------------------------
  alpha Z        PSCENC =       925.10232276
  Ewald energy   TEWEN  =    -12209.12187300
  -1/2 Hartree   DENC   =     -2412.26407438
  -exchange  EXHF       =         0.00000000
  -V(xc)+E(xc)   XCENC  =       -88.54918028
  PAW double counting   =     10975.62449099   -10605.52317522
  entropy T*S    EENTRO =        -0.26184459
  eigenvalues    EBANDS =       121.70240423
  atomic energy  EATOM  =     13179.75745913
  ---------------------------------------------------
  free energy    TOTEN  =      -113.53347036 eV

  energy without entropy =     -113.27162576  energy(sigma->0) =     -113.40254806


--------------------------------------------------------------------------------------------------------




----------------------------------------- Iteration    1(  10)  ---------------------------------------


    POTLOK:  cpu time    0.01: real time    0.01
    SETDIJ:  cpu time    0.01: real time    0.01
    EDDIAG:  cpu time    1.90: real time    1.90
  RMM-DIIS:  cpu time    4.65: real time    4.65
    ORTHCH:  cpu time    0.41: real time    0.41
       DOS:  cpu time    0.02: real time    0.02
    CHARGE:  cpu time    0.34: real time    0.35
    MIXING:  cpu time    0.00: real time    0.00
    --------------------------------------------
      LOOP:  cpu time    7.36: real time    7.35

 eigenvalue-minimisations  : 16282
 total energy-change (2. order) : 0.1082085E+00  (-0.2089991E-01)
 number of electron     148.0005119 magnetization       5.0946470
 augmentation part       65.2309977 magnetization       3.4391679

 Broyden mixing:
  rms(total) = 0.90002E-01    rms(broyden)= 0.87651E-01
  rms(prec ) = 0.10910E+00
  weight for this iteration     100.00

 eigenvalues of (default mixing * dielectric matrix)
  average eigenvalue GAMMA=   0.9627
  1.4797  1.4797  0.2662  0.9260  0.6622

 Free energy of the ion-electron system (eV)
  ---------------------------------------------------
  alpha Z        PSCENC =       925.10232276
  Ewald energy   TEWEN  =    -12209.12187300
  -1/2 Hartree   DENC   =     -2403.26462247
  -exchange  EXHF       =         0.00000000
  -V(xc)+E(xc)   XCENC  =       -88.37586205
  PAW double counting   =     11036.43320370   -10667.27246878
  entropy T*S    EENTRO =        -0.27439845
  eigenvalues    EBANDS =       113.59097729
  atomic energy  EATOM  =     13179.75745913
  ---------------------------------------------------
  free energy    TOTEN  =      -113.42526187 eV

  energy without entropy =     -113.15086342  energy(sigma->0) =     -113.28806265


--------------------------------------------------------------------------------------------------------




----------------------------------------- Iteration    1(  11)  ---------------------------------------


    POTLOK:  cpu time    0.01: real time    0.01
    SETDIJ:  cpu time    0.01: real time    0.01
    EDDIAG:  cpu time    1.89: real time    1.89
  RMM-DIIS:  cpu time    4.85: real time    4.85
    ORTHCH:  cpu time    0.41: real time    0.41
       DOS:  cpu time    0.02: real time    0.03
    CHARGE:  cpu time    0.34: real time    0.34
    MIXING:  cpu time    0.00: real time    0.00
    --------------------------------------------
      LOOP:  cpu time    7.54: real time    7.55

 eigenvalue-minimisations  : 16999
 total energy-change (2. order) :-0.2515190E-02  (-0.3418624E-02)
 number of electron     148.0005168 magnetization       5.1826211
 augmentation part       65.1629007 magnetization       3.4995732

 Broyden mixing:
  rms(total) = 0.82656E-01    rms(broyden)= 0.82524E-01
  rms(prec ) = 0.14394E+00
  weight for this iteration     100.00

 eigenvalues of (default mixing * dielectric matrix)
  average eigenvalue GAMMA=   0.9534
  1.5943  1.5943  0.2661  0.7912  0.7912  0.6832

 Free energy of the ion-electron system (eV)
  ---------------------------------------------------
  alpha Z        PSCENC =       925.10232276
  Ewald energy   TEWEN  =    -12209.12187300
  -1/2 Hartree   DENC   =     -2401.64688763
  -exchange  EXHF       =         0.00000000
  -V(xc)+E(xc)   XCENC  =       -88.32206363
  PAW double counting   =     11071.29314274   -10702.90169781
  entropy T*S    EENTRO =        -0.27448092
  eigenvalues    EBANDS =       112.68630131
  atomic energy  EATOM  =     13179.75745913
  ---------------------------------------------------
  free energy    TOTEN  =      -113.42777706 eV

  energy without entropy =     -113.15329614  energy(sigma->0) =     -113.29053660


--------------------------------------------------------------------------------------------------------




----------------------------------------- Iteration    1(  12)  ---------------------------------------


    POTLOK:  cpu time    0.01: real time    0.01
    SETDIJ:  cpu time    0.01: real time    0.01
    EDDIAG:  cpu time    1.90: real time    1.89
  RMM-DIIS:  cpu time    4.86: real time    4.87
    ORTHCH:  cpu time    0.41: real time    0.41
       DOS:  cpu time    0.02: real time    0.02
    CHARGE:  cpu time    0.34: real time    0.34
    MIXING:  cpu time    0.00: real time    0.00
    --------------------------------------------
      LOOP:  cpu time    7.56: real time    7.57

 eigenvalue-minimisations  : 17066
 total energy-change (2. order) : 0.6750139E-02  (-0.4848396E-03)
 number of electron     148.0005125 magnetization       5.1440363
 augmentation part       65.2028969 magnetization       3.4647860

 Broyden mixing:
  rms(total) = 0.31875E-01    rms(broyden)= 0.31797E-01
  rms(prec ) = 0.44148E-01
  weight for this iteration     100.00

 eigenvalues of (default mixing * dielectric matrix)
  average eigenvalue GAMMA=   1.0387
  1.8637  1.6421  0.2661  1.2320  0.8166  0.8166  0.6338

 Free energy of the ion-electron system (eV)
  ---------------------------------------------------
  alpha Z        PSCENC =       925.10232276
  Ewald energy   TEWEN  =    -12209.12187300
  -1/2 Hartree   DENC   =     -2400.67674635
  -exchange  EXHF       =         0.00000000
  -V(xc)+E(xc)   XCENC  =       -88.27160157
  PAW double counting   =     11099.87854323   -10732.08569257
  entropy T*S    EENTRO =        -0.27188931
  eigenvalues    EBANDS =       112.26845075
  atomic energy  EATOM  =     13179.75745913
  ---------------------------------------------------
  free energy    TOTEN  =      -113.42102693 eV

  energy without entropy =     -113.14913762  energy(sigma->0) =     -113.28508227


--------------------------------------------------------------------------------------------------------




----------------------------------------- Iteration    1(  13)  ---------------------------------------


    POTLOK:  cpu time    0.01: real time    0.01
    SETDIJ:  cpu time    0.01: real time    0.01
    EDDIAG:  cpu time    1.89: real time    1.89
  RMM-DIIS:  cpu time    4.60: real time    4.60
    ORTHCH:  cpu time    0.42: real time    0.41
       DOS:  cpu time    0.02: real time    0.02
    CHARGE:  cpu time    0.34: real time    0.34
    MIXING:  cpu time    0.00: real time    0.00
    --------------------------------------------
      LOOP:  cpu time    7.30: real time    7.30

 eigenvalue-minimisations  : 15978
 total energy-change (2. order) : 0.1043215E-02  (-0.8988308E-04)
 number of electron     148.0005112 magnetization       5.1453870
 augmentation part       65.2083943 magnetization       3.4598401

 Broyden mixing:
  rms(total) = 0.86050E-02    rms(broyden)= 0.85337E-02
  rms(prec ) = 0.12283E-01
  weight for this iteration     100.00

 eigenvalues of (default mixing * dielectric matrix)
  average eigenvalue GAMMA=   1.0440
  2.1987  1.5688  0.2661  1.2637  0.8107  0.8107  0.8056  0.6274

 Free energy of the ion-electron system (eV)
  ---------------------------------------------------
  alpha Z        PSCENC =       925.10232276
  Ewald energy   TEWEN  =    -12209.12187300
  -1/2 Hartree   DENC   =     -2400.18185175
  -exchange  EXHF       =         0.00000000
  -V(xc)+E(xc)   XCENC  =       -88.27591440
  PAW double counting   =     11116.75078187   -10749.34468391
  entropy T*S    EENTRO =        -0.27144326
  eigenvalues    EBANDS =       112.16521886
  atomic energy  EATOM  =     13179.75745913
  ---------------------------------------------------
  free energy    TOTEN  =      -113.41998371 eV

  energy without entropy =     -113.14854045  energy(sigma->0) =     -113.28426208


--------------------------------------------------------------------------------------------------------




----------------------------------------- Iteration    1(  14)  ---------------------------------------


    POTLOK:  cpu time    0.01: real time    0.01
    SETDIJ:  cpu time    0.02: real time    0.01
    EDDIAG:  cpu time    1.89: real time    1.89
  RMM-DIIS:  cpu time    3.31: real time    3.31
    ORTHCH:  cpu time    0.41: real time    0.41
       DOS:  cpu time    0.02: real time    0.03
    --------------------------------------------
      LOOP:  cpu time    5.67: real time    5.67

 eigenvalue-minimisations  : 11064
 total energy-change (2. order) :-0.1341262E-04  (-0.1167397E-04)
 number of electron     148.0005112 magnetization       5.1453870
 augmentation part       65.2083943 magnetization       3.4598401

 Free energy of the ion-electron system (eV)
  ---------------------------------------------------
  alpha Z        PSCENC =       925.10232276
  Ewald energy   TEWEN  =    -12209.12187300
  -1/2 Hartree   DENC   =     -2400.02225879
  -exchange  EXHF       =         0.00000000
  -V(xc)+E(xc)   XCENC  =       -88.27416895
  PAW double counting   =     11122.86778013   -10755.63793806
  entropy T*S    EENTRO =        -0.27207199
  eigenvalues    EBANDS =       112.18075165
  atomic energy  EATOM  =     13179.75745913
  ---------------------------------------------------
  free energy    TOTEN  =      -113.41999712 eV

  energy without entropy =     -113.14792513  energy(sigma->0) =     -113.28396113


--------------------------------------------------------------------------------------------------------




 average (electrostatic) potential at core
  the test charge radii are     1.1806  1.0894  1.2064
  (the norm of the test charge is              1.0000)
       1 -46.3727       2 -46.3727       3 -46.3727       4 -46.3727       5 -46.3727
       6 -46.3727       7 -46.3727       8 -46.3727       9 -98.5144      10 -98.5144
      11 -98.5144      12 -98.5144      13 -37.2685      14 -37.2685      15 -37.2685
      16 -37.2685
 
 
 
 E-fermi :   9.0305     XC(G=0): -12.8493     alpha+bet :-16.0878


 spin component 1

 k-point   1 :       0.0000    0.0000    0.0000
  band No.  band energies     occupation 
      1     -12.7043      1.00000
      2     -12.7043      1.00000
      3     -12.6888      1.00000
      4     -12.6653      1.00000
      5     -12.6653      1.00000
      6     -12.6596      1.00000
      7     -12.6596      1.00000
      8     -12.6568      1.00000
      9     -12.6568      1.00000
     10     -12.6517      1.00000
     11     -12.6225      1.00000
     12     -12.6149      1.00000
     13     -12.6034      1.00000
     14     -12.5921      1.00000
     15     -12.5921      1.00000
     16     -12.5700      1.00000
     17     -12.5700      1.00000
     18     -12.5549      1.00000
     19     -12.5496      1.00000
     20     -12.5496      1.00000
     21      -1.5416      1.00000
     22       0.0500      1.00000
     23       0.5463      1.00000
     24       0.5463      1.00000
     25       2.6448      1.00000
     26       3.2350      1.00000
     27       3.2350      1.00000
     28       3.8324      1.00000
     29       4.2763      1.00000
     30       4.3497      1.00000
     31       4.3898      1.00000
     32       4.3898      1.00000
     33       4.5997      1.00000
     34       4.6856      1.00000
     35       4.6856      1.00000
     36       4.8503      1.00000
     37       4.8503      1.00000
     38       4.9378      1.00000
     39       5.1257      1.00000
     40       5.2813      1.00000
     41       5.2813      1.00000
     42       5.3436      1.00000
     43       5.3436      1.00000
     44       5.3702      1.00000
     45       5.3702      1.00000
     46       6.1229      1.00000
     47       6.1229      1.00000
     48       6.5718      1.00000
     49       6.5718      1.00000
     50       6.7175      1.00000
     51       6.7175      1.00000
     52       6.8716      1.00000
     53       6.8716      1.00000
     54       6.8882      1.00000
     55       6.8882      1.00000
     56       7.2161      1.00000
     57       7.2183      1.00000
     58       7.2183      1.00000
     59       7.2443      1.00000
     60       7.2443      1.00000
     61       7.4151      1.00000
     62       7.5842      1.00000
     63       7.5842      1.00000
     64       7.7676      1.00000
     65       7.7676      1.00000
     66       7.9066      1.00000
     67       8.2721      1.00000
     68       8.2790      1.00000
     69       8.4217      0.99999
     70       8.4217      0.99999
     71       8.5132      0.99987
     72       8.5132      0.99987
     73       8.5734      0.99939
     74       8.8819      0.85331
     75       8.8914      0.83740
     76       8.8914      0.83740
     77       9.1458      0.20757
     78       9.1458      0.20757
     79       9.1462      0.20663
     80       9.2168      0.09390
     81       9.2886      0.03403
     82       9.3134      0.02273
     83       9.4265      0.00255
     84       9.4265      0.00255
     85       9.4684      0.00098
     86       9.4684      0.00098
     87       9.7892      0.00000
     88       9.7892      0.00000
     89       9.8523      0.00000
     90      10.0937      0.00000
     91      10.0937      0.00000
     92      10.2480      0.00000
     93      10.2480      0.00000
     94      10.5551      0.00000
     95      12.4996      0.00000
     96      12.9752      0.00000
     97      12.9752      0.00000
     98      13.7930      0.00000
     99      13.7930      0.00000
    100      14.4597      0.00000
    101      14.4597      0.00000
    102      14.9773      0.00000
    103      15.5760      0.00000
    104      15.5760      0.00000
    105      16.1473      0.00000
    106      16.3815      0.00000
    107      18.0770      0.00000
    108      18.1270      0.00000
    109      18.1322      0.00000
    110      18.7650      0.00000
    111      18.7670      0.00000
    112      19.0890      0.00000
    113      19.1288      0.00000
    114      19.1353      0.00000
    115      19.1637      0.00000
    116      19.2085      0.00000
    117      19.3691      0.00000
    118      19.4996      0.00000

 k-point   2 :       0.1429    0.0000    0.0000
  band No.  band energies     occupation 
      1     -12.7047      1.00000
      2     -12.6883      1.00000
      3     -12.6869      1.00000
      4     -12.6816      1.00000
      5     -12.6645      1.00000
      6     -12.6624      1.00000
      7     -12.6594      1.00000
      8     -12.6534      1.00000
      9     -12.6533      1.00000
     10     -12.6343      1.00000
     11     -12.6318      1.00000
     12     -12.6236      1.00000
     13     -12.6173      1.00000
     14     -12.5866      1.00000
     15     -12.5754      1.00000
     16     -12.5720      1.00000
     17     -12.5691      1.00000
     18     -12.5669      1.00000
     19     -12.5527      1.00000
     20     -12.5425      1.00000
     21      -1.4470      1.00000
     22       0.0946      1.00000
     23       0.4641      1.00000
     24       0.5489      1.00000
     25       2.7370      1.00000
     26       3.1060      1.00000
     27       3.3267      1.00000
     28       3.9313      1.00000
     29       4.2084      1.00000
     30       4.3192      1.00000
     31       4.4018      1.00000
     32       4.4153      1.00000
     33       4.4483      1.00000
     34       4.7128      1.00000
     35       4.8192      1.00000
     36       4.9097      1.00000
     37       4.9407      1.00000
     38       4.9927      1.00000
     39       5.0770      1.00000
     40       5.2841      1.00000
     41       5.2844      1.00000
     42       5.3212      1.00000
     43       5.3331      1.00000
     44       5.4675      1.00000
     45       5.4744      1.00000
     46       5.9483      1.00000
     47       5.9644      1.00000
     48       6.3883      1.00000
     49       6.4967      1.00000
     50       6.5767      1.00000
     51       6.7911      1.00000
     52       6.8348      1.00000
     53       6.8571      1.00000
     54       6.9242      1.00000
     55       6.9298      1.00000
     56       7.1956      1.00000
     57       7.2328      1.00000
     58       7.2356      1.00000
     59       7.2373      1.00000
     60       7.2463      1.00000
     61       7.3958      1.00000
     62       7.5046      1.00000
     63       7.5109      1.00000
     64       7.6194      1.00000
     65       7.6560      1.00000
     66       7.8662      1.00000
     67       8.0554      1.00000
     68       8.0779      1.00000
     69       8.1455      1.00000
     70       8.4391      0.99999
     71       8.4794      0.99995
     72       8.5278      0.99981
     73       8.5296      0.99980
     74       8.5899      0.99908
     75       8.7419      0.97939
     76       8.8599      0.88621
     77       9.2626      0.05041
     78       9.3028      0.02711
     79       9.3368      0.01516
     80       9.3713      0.00799
     81       9.4002      0.00447
     82       9.4337      0.00218
     83       9.4418      0.00182
     84       9.4729      0.00088
     85       9.5081      0.00037
     86       9.5596      0.00009
     87       9.7642      0.00000
     88       9.8114      0.00000
     89       9.9666      0.00000
     90      10.0324      0.00000
     91      10.1029      0.00000
     92      10.2721      0.00000
     93      10.4766      0.00000
     94      11.0957      0.00000
     95      12.2340      0.00000
     96      13.0135      0.00000
     97      13.2606      0.00000
     98      13.5001      0.00000
     99      14.3590      0.00000
    100      14.4605      0.00000
    101      14.7924      0.00000
    102      14.9622      0.00000
    103      15.2694      0.00000
    104      15.3038      0.00000
    105      16.3604      0.00000
    106      16.5390      0.00000
    107      17.6934      0.00000
    108      18.1477      0.00000
    109      18.1621      0.00000
    110      18.7328      0.00000
    111      18.8278      0.00000
    112      18.9611      0.00000
    113      19.0943      0.00000
    114      19.1464      0.00000
    115      19.1677      0.00000
    116      19.2419      0.00000
    117      19.2884      0.00000
    118      19.6214      0.00000

 k-point   3 :       0.2857    0.0000    0.0000
  band No.  band energies     occupation 
      1     -12.6811      1.00000
      2     -12.6794      1.00000
      3     -12.6787      1.00000
      4     -12.6723      1.00000
      5     -12.6643      1.00000
      6     -12.6616      1.00000
      7     -12.6602      1.00000
      8     -12.6580      1.00000
      9     -12.6555      1.00000
     10     -12.6457      1.00000
     11     -12.6448      1.00000
     12     -12.6377      1.00000
     13     -12.6290      1.00000
     14     -12.6083      1.00000
     15     -12.6070      1.00000
     16     -12.6005      1.00000
     17     -12.5868      1.00000
     18     -12.5847      1.00000
     19     -12.5833      1.00000
     20     -12.5580      1.00000
     21      -1.1731      1.00000
     22       0.1910      1.00000
     23       0.2144      1.00000
     24       0.5422      1.00000
     25       2.9680      1.00000
     26       2.9911      1.00000
     27       3.5724      1.00000
     28       3.8260      1.00000
     29       4.0722      1.00000
     30       4.1299      1.00000
     31       4.4541      1.00000
     32       4.5608      1.00000
     33       4.5864      1.00000
     34       4.6884      1.00000
     35       4.9076      1.00000
     36       4.9474      1.00000
     37       5.0609      1.00000
     38       5.1291      1.00000
     39       5.1816      1.00000
     40       5.2072      1.00000
     41       5.2976      1.00000
     42       5.3419      1.00000
     43       5.5161      1.00000
     44       5.5864      1.00000
     45       5.6084      1.00000
     46       5.6404      1.00000
     47       5.7023      1.00000
     48       6.0388      1.00000
     49       6.0721      1.00000
     50       6.4495      1.00000
     51       6.6265      1.00000
     52       6.6795      1.00000
     53       6.7656      1.00000
     54       6.8953      1.00000
     55       6.9889      1.00000
     56       7.1183      1.00000
     57       7.2390      1.00000
     58       7.2755      1.00000
     59       7.2931      1.00000
     60       7.3050      1.00000
     61       7.3114      1.00000
     62       7.3780      1.00000
     63       7.3902      1.00000
     64       7.4171      1.00000
     65       7.5458      1.00000
     66       7.6986      1.00000
     67       7.7221      1.00000
     68       7.7937      1.00000
     69       7.9265      1.00000
     70       7.9966      1.00000
     71       8.0019      1.00000
     72       8.1328      1.00000
     73       8.6184      0.99822
     74       8.8176      0.93392
     75       8.8734      0.86676
     76       8.9399      0.73916
     77       9.1377      0.22431
     78       9.2172      0.09341
     79       9.4637      0.00110
     80       9.4919      0.00055
     81       9.4943      0.00052
     82       9.4988      0.00046
     83       9.5883      0.00004
     84       9.5883      0.00004
     85       9.6403      0.00001
     86       9.6875      0.00000
     87       9.8478      0.00000
     88       9.8916      0.00000
     89      10.1038      0.00000
     90      10.2519      0.00000
     91      10.4143      0.00000
     92      10.4436      0.00000
     93      10.9356      0.00000
     94      11.9032      0.00000
     95      12.1552      0.00000
     96      12.7778      0.00000
     97      13.2580      0.00000
     98      13.8268      0.00000
     99      14.0873      0.00000
    100      14.4846      0.00000
    101      14.9119      0.00000
    102      15.2994      0.00000
    103      15.6829      0.00000
    104      16.0799      0.00000
    105      16.1881      0.00000
    106      16.9783      0.00000
    107      17.0208      0.00000
    108      17.0356      0.00000
    109      18.1848      0.00000
    110      18.3677      0.00000
    111      18.6321      0.00000
    112      19.0863      0.00000
    113      19.1708      0.00000
    114      19.3735      0.00000
    115      19.5577      0.00000
    116      19.5981      0.00000
    117      20.1097      0.00000
    118      20.1720      0.00000

 k-point   4 :       0.4286    0.0000    0.0000
  band No.  band energies     occupation 
      1     -12.6769      1.00000
      2     -12.6713      1.00000
      3     -12.6642      1.00000
      4     -12.6635      1.00000
      5     -12.6617      1.00000
      6     -12.6591      1.00000
      7     -12.6562      1.00000
      8     -12.6529      1.00000
      9     -12.6502      1.00000
     10     -12.6423      1.00000
     11     -12.6405      1.00000
     12     -12.6401      1.00000
     13     -12.6300      1.00000
     14     -12.6266      1.00000
     15     -12.6114      1.00000
     16     -12.5988      1.00000
     17     -12.5956      1.00000
     18     -12.5953      1.00000
     19     -12.5901      1.00000
     20     -12.5888      1.00000
     21      -0.7529      1.00000
     22      -0.2577      1.00000
     23       0.3663      1.00000
     24       0.4880      1.00000
     25       3.0721      1.00000
     26       3.3437      1.00000
     27       3.4099      1.00000
     28       3.7134      1.00000
     29       3.9242      1.00000
     30       4.3126      1.00000
     31       4.4373      1.00000
     32       4.6747      1.00000
     33       4.7561      1.00000
     34       4.7840      1.00000
     35       4.8599      1.00000
     36       4.9169      1.00000
     37       4.9710      1.00000
     38       5.2105      1.00000
     39       5.2134      1.00000
     40       5.3853      1.00000
     41       5.3953      1.00000
     42       5.4000      1.00000
     43       5.4746      1.00000
     44       5.5016      1.00000
     45       5.6538      1.00000
     46       5.7773      1.00000
     47       5.8464      1.00000
     48       5.9142      1.00000
     49       6.0428      1.00000
     50       6.0792      1.00000
     51       6.1734      1.00000
     52       6.3124      1.00000
     53       6.3905      1.00000
     54       6.6030      1.00000
     55       7.0962      1.00000
     56       7.1527      1.00000
     57       7.2537      1.00000
     58       7.3089      1.00000
     59       7.3339      1.00000
     60       7.3687      1.00000
     61       7.3732      1.00000
     62       7.3798      1.00000
     63       7.4039      1.00000
     64       7.4117      1.00000
     65       7.4172      1.00000
     66       7.5460      1.00000
     67       7.5752      1.00000
     68       7.6344      1.00000
     69       7.6735      1.00000
     70       7.7338      1.00000
     71       7.7405      1.00000
     72       7.8185      1.00000
     73       8.7378      0.98078
     74       8.7818      0.96071
     75       9.0341      0.48985
     76       9.0368      0.48247
     77       9.0494      0.44705
     78       9.1224      0.25792
     79       9.5001      0.00045
     80       9.5195      0.00027
     81       9.5456      0.00014
     82       9.5664      0.00008
     83       9.6093      0.00002
     84       9.6254      0.00001
     85       9.6466      0.00001
     86       9.7426      0.00000
     87       9.8651      0.00000
     88      10.0514      0.00000
     89      10.0538      0.00000
     90      10.1909      0.00000
     91      11.1412      0.00000
     92      11.3644      0.00000
     93      11.4785      0.00000
     94      11.6658      0.00000
     95      11.9513      0.00000
     96      12.6198      0.00000
     97      13.3953      0.00000
     98      13.8919      0.00000
     99      14.5381      0.00000
    100      14.6644      0.00000
    101      14.7407      0.00000
    102      14.9370      0.00000
    103      15.3107      0.00000
[...]
    101      14.9416      0.00000
    102      15.2201      0.00000
    103      15.6373      0.00000
    104      15.6373      0.00000
    105      16.0391      0.00000
    106      16.0608      0.00000
    107      16.0608      0.00000
    108      16.6236      0.00000
    109      18.2182      0.00000
    110      18.4431      0.00000
    111      18.8002      0.00000
    112      18.8002      0.00000
    113      19.3674      0.00000
    114      19.3675      0.00000
    115      19.4250      0.00000
    116      20.1479      0.00000
    117      20.8102      0.00000
    118      20.8758      0.00000


--------------------------------------------------------------------------------------------------------


 soft charge-density along one line, spin component 1
         0         1         2         3         4         5         6         7         8         9
 total charge-density along one line
 
 soft charge-density along one line, spin component 2
         0         1         2         3         4         5         6         7         8         9
 total charge-density along one line
 
 pseudopotential strength for first ion, spin component: 1
 -5.403  -0.000  -0.000  -0.000   0.000  -0.581   0.000   0.000
 -0.000  -5.433  -0.000   0.000   0.000   0.000  -0.577   0.000
 -0.000  -0.000  -5.421  -0.000  -0.000   0.000   0.000  -0.579
 -0.000   0.000  -0.000  -5.433  -0.000   0.000  -0.000   0.000
  0.000   0.000  -0.000  -0.000  -5.476  -0.000  -0.000   0.000
 -0.581   0.000   0.000   0.000  -0.000   0.450  -0.000  -0.000
  0.000  -0.577   0.000  -0.000  -0.000  -0.000   0.449  -0.000
  0.000   0.000  -0.579   0.000   0.000  -0.000  -0.000   0.450
  0.000  -0.000   0.000  -0.577   0.000  -0.000   0.000  -0.000
 -0.000  -0.000   0.000   0.000  -0.569   0.000   0.000  -0.000
 -0.000   0.000  -0.006   0.000  -0.000   0.000  -0.000   0.001
  0.000  -0.000   0.000  -0.000   0.000  -0.000   0.000  -0.000
 -0.000  -0.000  -0.000   0.001  -0.000   0.000   0.000   0.000
  0.001   0.000  -0.000  -0.000  -0.000   0.001  -0.000   0.000
  0.000   0.001   0.000  -0.000  -0.000  -0.000   0.001  -0.000
  0.000   0.000   0.000  -0.000   0.000  -0.000  -0.000  -0.000
 -0.000  -0.000   0.000   0.000   0.000  -0.000   0.000  -0.000
 -0.000  -0.000  -0.000   0.000   0.000   0.000  -0.000   0.000
 pseudopotential strength for first ion, spin component: 2
 -5.409  -0.000  -0.000  -0.000   0.000  -0.580   0.000   0.000
 -0.000  -5.435  -0.000   0.000   0.000   0.000  -0.576   0.000
 -0.000  -0.000  -5.409  -0.000  -0.000   0.000   0.000  -0.581
 -0.000   0.000  -0.000  -5.435  -0.000   0.000  -0.000   0.000
  0.000   0.000  -0.000  -0.000  -5.441  -0.000  -0.000   0.000
 -0.580   0.000   0.000   0.000  -0.000   0.450  -0.000  -0.000
  0.000  -0.576   0.000  -0.000  -0.000  -0.000   0.449  -0.000
  0.000   0.000  -0.581   0.000   0.000  -0.000  -0.000   0.450
  0.000  -0.000   0.000  -0.576   0.000  -0.000   0.000  -0.000
 -0.000  -0.000   0.000   0.000  -0.575   0.000   0.000  -0.000
 -0.000   0.000  -0.003   0.000  -0.000   0.000  -0.000   0.001
  0.000  -0.000   0.000  -0.000   0.000  -0.000   0.000  -0.000
 -0.000  -0.000  -0.000   0.002  -0.000   0.000   0.000   0.000
  0.002   0.000  -0.000  -0.000  -0.000   0.001  -0.000   0.000
  0.000   0.002   0.000  -0.000  -0.000  -0.000   0.001  -0.000
  0.000   0.000   0.000  -0.000   0.000  -0.000  -0.000  -0.000
 -0.000  -0.000   0.000   0.000   0.000  -0.000   0.000  -0.000
 -0.000  -0.000  -0.000   0.000   0.000   0.000  -0.000   0.000
 total augmentation occupancy for first ion, spin component: 1
  1.834   0.000   0.000  -0.000   0.000   0.483  -0.000   0.000   0.000  -0.000  -0.000  -0.000   0.000  -0.047  -0.000   0.000
 -0.000   1.720  -0.000   0.000   0.000   0.000   0.581   0.000   0.000   0.000  -0.000   0.000  -0.000  -0.000  -0.053  -0.000
  0.000  -0.000   1.718   0.000   0.000   0.000   0.000   0.471   0.000  -0.000   0.081  -0.015  -0.000  -0.000   0.000   0.000
 -0.000   0.000   0.000   1.720  -0.000   0.000   0.000  -0.000   0.581   0.000   0.000  -0.000  -0.053  -0.000  -0.000   0.007
  0.000  -0.000   0.000  -0.000   1.526  -0.000  -0.000  -0.000  -0.000   0.547  -0.000  -0.000  -0.000   0.000  -0.000  -0.000
  0.483  -0.000   0.000  -0.000  -0.000   0.258  -0.000   0.000  -0.000   0.000   0.000   0.000  -0.000   0.023  -0.000   0.000
  0.000   0.581   0.000   0.000   0.000  -0.000   0.323   0.000  -0.000  -0.000   0.000  -0.000   0.000   0.000   0.026  -0.000
 -0.000  -0.000   0.471   0.000   0.000   0.000   0.000   0.265  -0.000   0.000  -0.026  -0.013   0.000   0.000  -0.000  -0.000
 -0.000   0.000  -0.000   0.581   0.000  -0.000  -0.000  -0.000   0.323   0.000  -0.000  -0.000   0.026   0.000   0.000  -0.001
 -0.000   0.000   0.000   0.000   0.547  -0.000  -0.000  -0.000   0.000   0.297  -0.000   0.000   0.000  -0.000  -0.000   0.000
 -0.000  -0.000   0.081   0.000  -0.000   0.000  -0.000  -0.026   0.000   0.000   1.142  -0.288  -0.000   0.000  -0.000  -0.000
 -0.000   0.000  -0.015  -0.000   0.000  -0.000   0.000  -0.013   0.000   0.000  -0.288   0.103   0.000  -0.000  -0.000   0.000
  0.000   0.000   0.000  -0.053  -0.000  -0.000   0.000  -0.000   0.026  -0.000   0.000  -0.000   0.214  -0.000  -0.000  -0.007
 -0.047   0.000  -0.000  -0.000   0.000   0.023   0.000   0.000   0.000  -0.000   0.000  -0.000  -0.000   0.197   0.000   0.000
 -0.000  -0.053  -0.000  -0.000   0.000  -0.000   0.026   0.000  -0.000  -0.000   0.000   0.000   0.000   0.000   0.214  -0.000
  0.000  -0.000  -0.000   0.007  -0.000   0.000   0.000  -0.000  -0.001  -0.000   0.000  -0.000  -0.007  -0.000  -0.000   0.001
  0.007  -0.000   0.000  -0.000   0.000  -0.001  -0.000  -0.000  -0.000  -0.000   0.000   0.000  -0.000  -0.009  -0.000   0.000
  0.000   0.007   0.000   0.000  -0.000   0.000  -0.001   0.000  -0.000  -0.000  -0.000  -0.000  -0.000  -0.000  -0.007   0.000
 total augmentation occupancy for first ion, spin component: 2
 -0.017  -0.000   0.000   0.000  -0.000  -0.002   0.000  -0.000   0.000  -0.000   0.000   0.000   0.000   0.003   0.000   0.000
  0.000  -0.012  -0.000   0.000  -0.000   0.000  -0.004  -0.000  -0.000   0.000  -0.000   0.000   0.000   0.000   0.002   0.000
 -0.000  -0.000   0.007   0.000   0.000   0.000   0.000  -0.012  -0.000  -0.000  -0.009  -0.008   0.000   0.000  -0.000   0.000
 -0.000   0.000   0.000  -0.012  -0.000   0.000  -0.000   0.000  -0.004   0.000   0.000  -0.000   0.002   0.000   0.000   0.000
 -0.000   0.000   0.000  -0.000   0.045   0.000   0.000  -0.000   0.000  -0.022  -0.000   0.000   0.000   0.000   0.000   0.000
 -0.002   0.000   0.000   0.000   0.000   0.003   0.000  -0.000   0.000   0.000   0.000   0.000  -0.000  -0.005   0.000  -0.000
 -0.000  -0.004  -0.000  -0.000  -0.000   0.000   0.003   0.000   0.000   0.000  -0.000  -0.000   0.000   0.000  -0.004   0.000
 -0.000  -0.000  -0.012   0.000  -0.000  -0.000   0.000   0.000  -0.000   0.000   0.001  -0.002   0.000  -0.000  -0.000   0.000
  0.000  -0.000  -0.000  -0.004   0.000   0.000   0.000  -0.000   0.003   0.000   0.000  -0.000  -0.004   0.000   0.000   0.000
  0.000  -0.000  -0.000   0.000  -0.022   0.000  -0.000   0.000   0.000   0.001   0.000  -0.000   0.000   0.000   0.000  -0.000
  0.000   0.000  -0.009  -0.000  -0.000   0.000  -0.000   0.001   0.000   0.000  -0.013  -0.001   0.000   0.000   0.000   0.000
  0.000   0.000  -0.008  -0.000   0.000   0.000  -0.000  -0.002  -0.000  -0.000  -0.001   0.000  -0.000  -0.000  -0.000  -0.000
  0.000   0.000   0.000   0.002  -0.000  -0.000   0.000  -0.000  -0.004  -0.000   0.000  -0.000  -0.004  -0.000   0.000   0.000
  0.003   0.000   0.000  -0.000  -0.000  -0.005  -0.000  -0.000  -0.000   0.000  -0.000  -0.000   0.000  -0.002   0.000   0.000
  0.000   0.002  -0.000  -0.000  -0.000   0.000  -0.004  -0.000  -0.000   0.000  -0.000   0.000   0.000   0.000  -0.004  -0.000
  0.000   0.000  -0.000   0.000   0.000   0.000  -0.000   0.000   0.000   0.000   0.000   0.000   0.000   0.000   0.000   0.000
 -0.000  -0.000   0.000  -0.000  -0.000   0.000  -0.000   0.000  -0.000   0.000   0.000   0.000  -0.000  -0.000   0.000  -0.000
 -0.000   0.000   0.000   0.000   0.000   0.000   0.000   0.000   0.000   0.000   0.000  -0.000   0.000  -0.000   0.000   0.000


------------------------ aborting loop because EDIFF is reached ----------------------------------------


 


 total charge     
 
# of ion     s       p       d       tot
----------------------------------------
  1        0.374   0.385   7.438   8.198
  2        0.374   0.385   7.438   8.198
  3        0.374   0.385   7.438   8.198
  4        0.374   0.385   7.438   8.198
  5        0.374   0.385   7.438   8.198
  6        0.374   0.385   7.438   8.198
  7        0.374   0.385   7.438   8.198
  8        0.374   0.385   7.438   8.198
  9        1.067   1.345  10.203  12.615
 10        1.067   1.345  10.203  12.615
 11        1.067   1.345  10.203  12.615
 12        1.067   1.345  10.203  12.615
 13        0.448   0.590   3.428   4.466
 14        0.448   0.590   3.428   4.466
 15        0.448   0.590   3.428   4.466
 16        0.448   0.590   3.428   4.466
------------------------------------------------
tot        9.059  10.817 114.032 133.907
 


 magnetization (x)
 
# of ion     s       p       d       tot
----------------------------------------
  1       -0.004  -0.006   0.013   0.003
  2       -0.004  -0.006   0.013   0.003
  3       -0.004  -0.006   0.013   0.003
  4       -0.004  -0.006   0.013   0.003
  5       -0.004  -0.006   0.013   0.003
  6       -0.004  -0.006   0.013   0.003
  7       -0.004  -0.006   0.013   0.003
  8       -0.004  -0.006   0.013   0.003
  9       -0.006  -0.013   0.008  -0.011
 10       -0.006  -0.013   0.008  -0.011
 11       -0.006  -0.013   0.008  -0.011
 12       -0.006  -0.013   0.008  -0.011
 13        0.015   0.016   1.218   1.250
 14        0.015   0.016   1.218   1.250
 15        0.015   0.016   1.218   1.250
 16        0.015   0.016   1.218   1.250
------------------------------------------------
tot        0.005  -0.037   5.012   4.980
 
    CHARGE:  cpu time    0.34: real time    0.34
    FORLOC:  cpu time    0.00: real time    0.00
    FORNL :  cpu time    3.53: real time    3.53
    STRESS:  cpu time    2.85: real time    2.85
    FORCOR:  cpu time    0.01: real time    0.01
    FORHAR:  cpu time    0.00: real time    0.00
    MIXING:  cpu time    0.00: real time    0.00
    FORVDW:  cpu time    0.11: real time    0.11

  FORCE on cell =-STRESS in cart. coord.  units (eV):
  Direction    XX          YY          ZZ          XY          YZ          ZX
  --------------------------------------------------------------------------------------
  Alpha Z   925.10232   925.10232   925.10232
  Ewald   -4138.94213 -4138.94213 -3931.26699     0.00000    -0.00000     0.00000
  Hartree   753.53974   753.53974   892.85774     0.00000     0.00000     0.00000
  E(xc)    -719.20569  -719.20569  -719.87529    -0.00000     0.00000     0.00000
  Local     535.32744   535.32744   184.90489     0.00000     0.00000     0.00000
  n-local   -64.54565   -79.23596   -66.82509     1.48649    -0.78412     0.88820
  augment  1160.45003  1160.45003  1160.71523    -0.00000     0.00000     0.00000
  Kinetic  1479.14316  1476.10336  1478.12630    -0.17449     1.28646     3.70661
  Fock        0.00000     0.00000     0.00000     0.00000     0.00000     0.00000
  -------------------------------------------------------------------------------------
  Total     -77.99583   -77.99583   -76.26087     0.00000     0.00000     0.00000
  in kB    -519.29580  -519.29580  -507.74446     0.00000     0.00000     0.00000
  external pressure =     -515.45 kB  Pullay stress =        0.00 kB


 VOLUME and BASIS-vectors are now :
 -----------------------------------------------------------------------------
  energy-cutoff  :      180.82
  volume of cell :      240.64
      direct lattice vectors                 reciprocal lattice vectors
     5.745000000  0.000000000  0.000000000     0.174064404  0.000000000  0.000000000
     0.000000000  5.745000000  0.000000000     0.000000000  0.174064404  0.000000000
     0.000000000  0.000000000  7.291000000     0.000000000  0.000000000  0.137155397

  length of vectors
     5.745000000  5.745000000  7.291000000     0.174064404  0.174064404  0.137155397


 FORCES acting on ions
    electron-ion (+dipol)            ewald-force                    non-local-force                 convergence-correction
 -----------------------------------------------------------------------------------------------
   -.464E-15 0.772E-13 0.110E-12   -.178E-13 0.178E-13 0.114E-12   0.867E-18 0.108E-17 0.000E+00   -.132E-12 -.474E-14 -.122E-12
   0.102E-12 -.985E-14 0.107E-12   -.178E-13 0.178E-13 0.114E-12   -.867E-18 -.195E-17 0.173E-17   0.121E-12 -.298E-13 -.162E-12
   0.796E-13 0.215E-13 -.461E-14   -.213E-13 0.142E-13 -.711E-13   -.260E-17 0.217E-17 0.434E-17   0.426E-13 0.960E-13 0.171E-12
   0.696E-15 0.957E-13 0.143E-14   -.355E-13 0.284E-13 -.711E-13   0.130E-17 -.108E-17 0.000E+00   -.290E-13 -.577E-13 0.130E-12
   0.848E-13 0.102E-12 0.111E-12   -.355E-13 0.142E-13 -.924E-13   0.000E+00 -.867E-18 0.434E-17   0.140E-12 0.907E-14 -.114E-12
   -.394E-14 0.823E-14 0.107E-12   -.497E-13 0.000E+00 -.924E-13   -.130E-17 -.282E-17 -.173E-17   -.946E-13 0.948E-14 -.911E-13
   0.991E-13 0.628E-13 0.383E-15   -.178E-13 0.178E-13 0.107E-12   0.000E+00 0.651E-18 0.173E-17   0.521E-13 -.115E-12 0.121E-12
   0.131E-14 -.911E-14 0.133E-14   -.320E-13 0.355E-14 0.107E-12   0.867E-18 0.325E-17 0.000E+00   -.275E-13 0.652E-13 0.101E-12
   0.231E-12 0.619E-12 0.864E-12   0.420E-13 -.179E-13 -.415E-13   -.159E-21 0.397E-22 0.529E-22   0.393E-13 -.228E-13 0.315E-13
   0.697E-12 0.118E-11 -.641E-13   0.358E-13 -.247E-13 -.415E-13   0.238E-21 0.199E-22 0.926E-22   -.168E-12 -.456E-13 0.219E-13
   0.697E-12 0.330E-11 -.305E-11   0.483E-13 -.174E-13 -.682E-13   0.131E-21 0.000E+00 0.106E-21   -.256E-12 -.289E-13 0.171E-12
   0.233E-12 0.231E-12 0.288E-12   0.331E-13 -.242E-13 -.682E-13   0.529E-22 0.529E-22 0.794E-22   0.120E-12 -.884E-13 -.625E-13
   0.794E-14 -.752E-13 0.298E-13   0.138E-13 -.110E-13 -.601E-14   -.662E-23 -.149E-22 0.132E-22   0.544E-13 0.497E-13 -.937E-15
   0.164E-13 0.252E-12 -.220E-12   0.146E-13 -.118E-13 -.601E-14   0.199E-22 -.662E-23 0.132E-22   -.375E-13 0.262E-14 -.290E-14
   0.286E-13 0.581E-13 -.320E-12   0.151E-13 -.984E-14 0.914E-14   0.397E-22 0.827E-23 0.132E-22   -.858E-14 0.253E-13 -.493E-13
   0.687E-14 0.518E-14 0.303E-13   0.127E-13 -.107E-13 0.914E-14   -.223E-22 -.132E-22 0.132E-22   0.370E-13 0.506E-14 0.213E-13
 -----------------------------------------------------------------------------------------------
   0.228E-11 0.592E-11 -.201E-11   -.120E-13 -.139E-13 -.995E-13   -.173E-17 0.434E-18 0.104E-16   -.147E-12 -.130E-12 0.164E-12
 
 
 POSITION                                       TOTAL-FORCE (eV/Angst)
 -----------------------------------------------------------------------------------
      0.00000      2.87250      3.64550        -0.000000     -0.000000     -0.000000
      2.87250      0.00000      3.64550         0.000000     -0.000000      0.000000
      2.87250      0.00000      0.00000         0.000000     -0.000000     -0.000000
      0.00000      2.87250      0.00000         0.000000     -0.000000      0.000000
      2.87250      2.87250      3.64550        -0.000000     -0.000000     -0.000000
      0.00000      0.00000      3.64550        -0.000000     -0.000000     -0.000000
      2.87250      2.87250      0.00000         0.000000     -0.000000     -0.000000
      0.00000      0.00000      0.00000         0.000000     -0.000000     -0.000000
      1.43625      4.30875      5.46825         0.000000      0.000000     -0.000000
      4.30875      1.43625      5.46825        -0.000000      0.000000      0.000000
      4.30875      4.30875      1.82275         0.000000      0.000000     -0.000000
      1.43625      1.43625      1.82275        -0.000000     -0.000000      0.000000
      1.43625      4.30875      1.82275         0.000000     -0.000000     -0.000000
      4.30875      1.43625      1.82275        -0.000000     -0.000000      0.000000
      4.30875      4.30875      5.46825        -0.000000     -0.000000     -0.000000
      1.43625      1.43625      5.46825         0.000000     -0.000000      0.000000
 -----------------------------------------------------------------------------------
    total drift:                                0.000000      0.000000     -0.000000


--------------------------------------------------------------------------------------------------------



  FREE ENERGIE OF THE ION-ELECTRON SYSTEM (eV)
  ---------------------------------------------------
  free  energy   TOTEN  =      -113.41999712 eV

  energy  without entropy=     -113.14792513  energy(sigma->0) =     -113.28396113
 


--------------------------------------------------------------------------------------------------------


    POTLOK:  cpu time    0.04: real time    0.03


--------------------------------------------------------------------------------------------------------


     LOOP+:  cpu time  113.94: real time  114.01
    4ORBIT:  cpu time    0.00: real time    0.00
 


 total charge     
 
# of ion     s       p       d       tot
----------------------------------------
  1        0.374   0.385   7.438   8.198
  2        0.374   0.385   7.438   8.198
  3        0.374   0.385   7.438   8.198
  4        0.374   0.385   7.438   8.198
  5        0.374   0.385   7.438   8.198
  6        0.374   0.385   7.438   8.198
  7        0.374   0.385   7.438   8.198
  8        0.374   0.385   7.438   8.198
  9        1.067   1.345  10.203  12.615
 10        1.067   1.345  10.203  12.615
 11        1.067   1.345  10.203  12.615
 12        1.067   1.345  10.203  12.615
 13        0.448   0.590   3.428   4.466
 14        0.448   0.590   3.428   4.466
 15        0.448   0.590   3.428   4.466
 16        0.448   0.590   3.428   4.466
------------------------------------------------
tot        9.059  10.817 114.032 133.907
 


 magnetization (x)
 
# of ion     s       p       d       tot
----------------------------------------
  1       -0.004  -0.006   0.013   0.003
  2       -0.004  -0.006   0.013   0.003
  3       -0.004  -0.006   0.013   0.003
  4       -0.004  -0.006   0.013   0.003
  5       -0.004  -0.006   0.013   0.003
  6       -0.004  -0.006   0.013   0.003
  7       -0.004  -0.006   0.013   0.003
  8       -0.004  -0.006   0.013   0.003
  9       -0.006  -0.013   0.008  -0.011
 10       -0.006  -0.013   0.008  -0.011
 11       -0.006  -0.013   0.008  -0.011
 12       -0.006  -0.013   0.008  -0.011
 13        0.015   0.016   1.218   1.250
 14        0.015   0.016   1.218   1.250
 15        0.015   0.016   1.218   1.250
 16        0.015   0.016   1.218   1.250
------------------------------------------------
tot        0.005  -0.037   5.012   4.980
 

 total amount of memory used by VASP on root node    41306. kBytes
========================================================================

   base      :      30000. kBytes
   nonl-proj :       1665. kBytes
   fftplans  :        107. kBytes
   grid      :        297. kBytes
   one-center:         62. kBytes
   wavefun   :       9175. kBytes
 
  
  
 General timing and accounting informations for this job:
 ========================================================
  
                  Total CPU time used (sec):      134.352
                            User time (sec):      134.068
                          System time (sec):        0.284
                         Elapsed time (sec):      134.589
  
                   Maximum memory used (kb):       63508.
                   Average memory used (kb):           0.
  
                          Minor page faults:        23820
                          Major page faults:            0
                 Voluntary context switches:          469
