 running on   24 total cores
 distrk:  each k-point on   24 cores,    1 groups
 distr:  one band on   12 cores,    2 groups
 using from now: INCAR     
 vasp.5.3.2 13Sep12 (build Sep 19 2012 13:12:15) complex                         
 POSCAR found type information on POSCAR  Rh Sn V 
 POSCAR found :  3 types and      16 ions
 scaLAPACK will be used

 ----------------------------------------------------------------------------- 
|                                                                             |
|           W    W    AA    RRRRR   N    N  II  N    N   GGGG   !!!           |
|           W    W   A  A   R    R  NN   N  II  NN   N  G    G  !!!           |
|           W    W  A    A  R    R  N N  N  II  N N  N  G       !!!           |
|           W WW W  AAAAAA  RRRRR   N  N N  II  N  N N  G  GGG   !            |
|           WW  WW  A    A  R   R   N   NN  II  N   NN  G    G                |
|           W    W  A    A  R    R  N    N  II  N    N   GGGG   !!!           |
|                                                                             |
|      For optimal performance we recommend that you set                      |
|        NPAR = 4 - approx SQRT( number of cores)                             |
|      (number of cores/NPAR must be integer)                                 |
|      This setting will greatly improve the performance of VASP for DFT.     |
|      The default NPAR=number of cores might be grossly inefficient          |
|      on modern multi-core architectures or massively parallel machines.     |
|      Do your own testing.                                                   |
|      Unfortunately you need to use the default for hybrid, GW and RPA       |
|      calculations.                                                          |
|                                                                             |
 ----------------------------------------------------------------------------- 

 LDA part: xc-table for Pade appr. of Perdew
 POSCAR, INCAR and KPOINTS ok, starting setup
 WARNING: small aliasing (wrap around) errors must be expected
 FFT: planning ...
 WAVECAR not read
 WARNING: chargedensity file is incomplete
 WARNING: random wavefunctions but no delay for mixing, default for NELMDL
 entering main loop
       N       E                     dE             d eps       ncg     rms          rms(c)
DAV:   1     0.906320956878E+03    0.90632E+03   -0.30846E+04 14600   0.755E+02
DAV:   2     0.109048776829E+02   -0.89542E+03   -0.81790E+03 14364   0.247E+02
DAV:   3    -0.891657020721E+02   -0.10007E+03   -0.91551E+02 14872   0.873E+01
DAV:   4    -0.922215125499E+02   -0.30558E+01   -0.30185E+01 16122   0.174E+01
DAV:   5    -0.923341865219E+02   -0.11267E+00   -0.11264E+00 20544   0.315E+00    0.557E+01
RMM:   6    -0.117895797393E+03   -0.25562E+02   -0.62485E+01 15748   0.220E+01    0.419E+01
RMM:   7    -0.125719918337E+03   -0.78241E+01   -0.24547E+01 14277   0.109E+01    0.322E+01
RMM:   8    -0.114085469209E+03    0.11634E+02   -0.82218E+00 15670   0.723E+00    0.117E+01
RMM:   9    -0.113533470358E+03    0.55200E+00   -0.31619E+00 15697   0.454E+00    0.456E+00
RMM:  10    -0.113425261874E+03    0.10821E+00   -0.20900E-01 16282   0.114E+00    0.900E-01
RMM:  11    -0.113427777064E+03   -0.25152E-02   -0.34186E-02 16999   0.458E-01    0.827E-01
RMM:  12    -0.113421026926E+03    0.67501E-02   -0.48484E-03 17066   0.211E-01    0.319E-01
RMM:  13    -0.113419983711E+03    0.10432E-02   -0.89883E-04 15978   0.828E-02    0.860E-02
RMM:  14    -0.113419997123E+03   -0.13413E-04   -0.11674E-04 11064   0.361E-02
   1 F= -.11342000E+03 E0= -.11328396E+03  d E =-.272072E+00  mag=     5.1428
Application 16147909 resources: utime ~3218s, stime ~14s, Rss ~63516, inblocks ~142791, outblocks ~196143
