 vasp.5.2.2 15Apr09 complex 
 executed on             LinuxIFC date 2012.03.06  21:38:02
 running on    8 nodes
 distr:  one band on    4 nodes,    2 groups


--------------------------------------------------------------------------------------------------------


 INCAR:
 POTCAR:   PAW_PBE Ge_d 06Sep2000                 
 POTCAR:   PAW_PBE Sr_sv 07Sep2000                
 POTCAR:   PAW_PBE Ge_d 06Sep2000                 
   VRHFIN =Ge: 3d4s4p                                                           
   LEXCH  = PE                                                                  
   EATOM  =  2596.4246 eV,  190.8318 Ry                                         
                                                                                
   TITEL  = PAW_PBE Ge_d 06Sep2000                                              
   LULTRA =        F    use ultrasoft PP ?                                      
   IUNSCR =        1    unscreen: 0-lin 1-nonlin 2-no                           
   RPACOR =    2.000    partial core radius                                     
   POMASS =   72.610; ZVAL   =   14.000    mass and valenz                      
   RCORE  =    2.300    outmost cutoff radius                                   
   RWIGS  =    2.300; RWIGS  =    1.217    wigner-seitz radius (au A)           
   ENMAX  =  287.568; ENMIN  =  215.676 eV                                      
   ICORE  =        3    local potential                                         
   LCOR   =        T    correct aug charges                                     
   LPAW   =        T    paw PP                                                  
   EAUG   =  531.356                                                            
   DEXC   =     .000                                                            
   RMAX   =    2.719    core radius for proj-oper                               
   RAUG   =    1.300    factor for augmentation sphere                          
   RDEP   =    2.318    radius for radial grids                                 
   QCUT   =   -4.597; QGAM   =    9.195    optimization parameters              
                                                                                
   Description                                                                  
     l     E      TYP  RCUT    TYP  RCUT                                        
     2   .000     23  2.300                                                     
     2  -.100     23  2.300                                                     
     0   .000     23  2.300                                                     
     0   .000     23  2.300                                                     
     1   .000     23  2.300                                                     
     1   .000     23  2.300                                                     
     3  -.100      7  2.300                                                     
  local pseudopotential read in
  partial core-charges read in
  atomic valenz-charges read in
  non local Contribution for L=           2  read in
    real space projection operators read in
  non local Contribution for L=           2  read in
    real space projection operators read in
  non local Contribution for L=           0  read in
    real space projection operators read in
  non local Contribution for L=           0  read in
    real space projection operators read in
  non local Contribution for L=           1  read in
    real space projection operators read in
  non local Contribution for L=           1  read in
    real space projection operators read in
    PAW grid and wavefunctions read in
 
   number of l-projection  operators is LMAX  =           6
   number of lm-projection operators is LMMAX =          18
 
 POTCAR:   PAW_PBE Sr_sv 07Sep2000                
   VRHFIN =Sr: 4s4p5s                                                           
   LEXCH  = PE                                                                  
   EATOM  =   842.4562 eV,   61.9188 Ry                                         
                                                                                
   TITEL  = PAW_PBE Sr_sv 07Sep2000                                             
   LULTRA =        F    use ultrasoft PP ?                                      
   IUNSCR =        1    unscreen: 0-lin 1-nonlin 2-no                           
   RPACOR =    2.200    partial core radius                                     
   POMASS =   87.620; ZVAL   =   10.000    mass and valenz                      
   RCORE  =    2.500    outmost cutoff radius                                   
   RWIGS  =    4.040; RWIGS  =    2.138    wigner-seitz radius (au A)           
   ENMAX  =  229.282; ENMIN  =  171.961 eV                                      
   RCLOC  =    2.201    cutoff for local pot                                    
   LCOR   =        T    correct aug charges                                     
   LPAW   =        T    paw PP                                                  
   EAUG   =  366.804                                                            
   DEXC   =     .000                                                            
   RMAX   =    3.045    core radius for proj-oper                               
   RAUG   =    1.300    factor for augmentation sphere                          
   RDEP   =    2.562    radius for radial grids                                 
   QCUT   =   -4.105; QGAM   =    8.210    optimization parameters              
                                                                                
   Description                                                                  
     l     E      TYP  RCUT    TYP  RCUT                                        
     0   .000     23  2.480                                                     
     0   .000     23  2.480                                                     
     1   .000     23  2.500                                                     
     1   .000     23  2.500                                                     
     2   .000     23  2.500                                                     
     2   .000     23  2.500                                                     
  local pseudopotential read in
  partial core-charges read in
  atomic valenz-charges read in
  non local Contribution for L=           0  read in
    real space projection operators read in
  non local Contribution for L=           0  read in
    real space projection operators read in
  non local Contribution for L=           1  read in
    real space projection operators read in
  non local Contribution for L=           1  read in
    real space projection operators read in
  non local Contribution for L=           2  read in
    real space projection operators read in
  non local Contribution for L=           2  read in
    real space projection operators read in
    PAW grid and wavefunctions read in
 
   number of l-projection  operators is LMAX  =           6
   number of lm-projection operators is LMMAX =          18
 
 PAW_PBE Ge_d 06Sep2000                 :
 energy of atom  1       EATOM=-2596.4246
 kinetic energy error for atom=    0.0135 (will be added to EATOM!!)
 PAW_PBE Sr_sv 07Sep2000                :
 energy of atom  2       EATOM= -842.4562
 kinetic energy error for atom=    0.0039 (will be added to EATOM!!)
 
 
 POSCAR: Ge Sr                                   
  positions in direct lattice
  No initial velocities read in
 exchange correlation table for  LEXCH =        8
   RHO(1)=    0.500       N(1)  =     2000
   RHO(2)=  100.500       N(2)  =     4000
 


--------------------------------------------------------------------------------------------------------


 ion  position               nearest neighbor table
   1  0.333  0.667  0.406-   2 2.60   2 2.60   2 2.60   3 3.20   3 3.20   3 3.20   3 3.92   3 3.92
                             3 3.92
   2  0.667  0.333  0.594-   1 2.60   1 2.60   1 2.60   3 3.20   3 3.20   3 3.20   3 3.92   3 3.92
                             3 3.92
   3  0.000  0.000  0.000-   1 3.20   2 3.20   1 3.20   2 3.20   2 3.20   1 3.20   2 3.92   1 3.92
                             1 3.92   2 3.92   2 3.92   1 3.92
 
  LATTYP: Found a hexagonal cell.
 ALAT       =     4.1745881723
 C/A-ratio  =     1.2473583866
  
  Lattice vectors:
  
 A1 = (   4.1745882313,   0.0000000000,   0.0000000000)
 A2 = (  -2.0872941156,   3.6152993906,   0.0000000000)
 A3 = (   0.0000000000,   0.0000000000,   5.2072075675)
 Subroutine PRICEL returns:
 Original cell was already a primitive cell.
 

Analysis of symmetry for initial positions (statically):

 Routine SETGRP: Setting up the symmetry group for a 
 hexagonal supercell.


 Subroutine GETGRP returns: Found 12 space group operations
 (whereof 12 operations were pure point group operations)
 out of a pool of 24 trial point group operations.


The static configuration has the point symmetry D_3d.

Analysis of symmetry for dynamics (positions and initial velocities):

 Subroutine DYNSYM returns: Found 12 space group operations
 (whereof 12 operations were pure point group operations)
 out of a pool of 12 trial space group operations
 (whereof 12 operations were pure point group operations)
 and found also     1 'primitive' translations


The dynamic configuration has the point symmetry D_3d.
 
 
 KPOINTS: KPOINTS created by Atomic Simulation Env

Automatic generation of k-mesh.
 
 Subroutine IBZKPT returns following result:
 ===========================================
 
 Found    962 irreducible k-points:
 
 Following reciprocal coordinates:
            Coordinates               Weight
  0.000000  0.000000  0.000000      1.000000
  0.066667  0.000000  0.000000      2.000000
  0.133333  0.000000  0.000000      2.000000
  0.200000  0.000000  0.000000      2.000000
  0.266667  0.000000  0.000000      2.000000
  0.333333  0.000000  0.000000      2.000000
  0.400000  0.000000  0.000000      2.000000
  0.466667  0.000000  0.000000      2.000000
  0.000000  0.062500  0.000000      2.000000
  0.066667  0.062500  0.000000      2.000000
  0.133333  0.062500  0.000000      2.000000
  0.200000  0.062500  0.000000      2.000000
  0.266667  0.062500  0.000000      2.000000
  0.333333  0.062500  0.000000      2.000000
  0.400000  0.062500  0.000000      2.000000
  0.466667  0.062500  0.000000      2.000000
 -0.466667  0.062500  0.000000      2.000000
 -0.400000  0.062500  0.000000      2.000000
 -0.333333  0.062500  0.000000      2.000000
 -0.266667  0.062500  0.000000      2.000000
 -0.200000  0.062500  0.000000      2.000000
 -0.133333  0.062500  0.000000      2.000000
 -0.066667  0.062500  0.000000      2.000000
  0.000000  0.125000  0.000000      2.000000
  0.066667  0.125000  0.000000      2.000000
  0.133333  0.125000  0.000000      2.000000
  0.200000  0.125000  0.000000      2.000000
  0.266667  0.125000  0.000000      2.000000
  0.333333  0.125000  0.000000      2.000000
  0.400000  0.125000  0.000000      2.000000
  0.466667  0.125000  0.000000      2.000000
 -0.466667  0.125000  0.000000      2.000000
 -0.400000  0.125000  0.000000      2.000000
 -0.333333  0.125000  0.000000      2.000000
 -0.266667  0.125000  0.000000      2.000000
 -0.200000  0.125000  0.000000      2.000000
 -0.133333  0.125000  0.000000      2.000000
 -0.066667  0.125000  0.000000      2.000000
  0.000000  0.187500  0.000000      2.000000
  0.066667  0.187500  0.000000      2.000000
  0.133333  0.187500  0.000000      2.000000
  0.200000  0.187500  0.000000      2.000000
  0.266667  0.187500  0.000000      2.000000
  0.333333  0.187500  0.000000      2.000000
  0.400000  0.187500  0.000000      2.000000
  0.466667  0.187500  0.000000      2.000000
 -0.466667  0.187500  0.000000      2.000000
 -0.400000  0.187500  0.000000      2.000000
 -0.333333  0.187500  0.000000      2.000000
 -0.266667  0.187500  0.000000      2.000000
 -0.200000  0.187500  0.000000      2.000000
 -0.133333  0.187500  0.000000      2.000000
 -0.066667  0.187500  0.000000      2.000000
  0.000000  0.250000  0.000000      2.000000
  0.066667  0.250000  0.000000      2.000000
  0.133333  0.250000  0.000000      2.000000
  0.200000  0.250000  0.000000      2.000000
  0.266667  0.250000  0.000000      2.000000
  0.333333  0.250000  0.000000      2.000000
  0.400000  0.250000  0.000000      2.000000
  0.466667  0.250000  0.000000      2.000000
 -0.466667  0.250000  0.000000      2.000000
 -0.400000  0.250000  0.000000      2.000000
 -0.333333  0.250000  0.000000      2.000000
 -0.266667  0.250000  0.000000      2.000000
 -0.200000  0.250000  0.000000      2.000000
 -0.133333  0.250000  0.000000      2.000000
 -0.066667  0.250000  0.000000      2.000000
  0.000000  0.312500  0.000000      2.000000
  0.066667  0.312500  0.000000      2.000000
  0.133333  0.312500  0.000000      2.000000
  0.200000  0.312500  0.000000      2.000000
  0.266667  0.312500  0.000000      2.000000
  0.333333  0.312500  0.000000      2.000000
  0.400000  0.312500  0.000000      2.000000
  0.466667  0.312500  0.000000      2.000000
 -0.466667  0.312500  0.000000      2.000000
 -0.400000  0.312500  0.000000      2.000000
 -0.333333  0.312500  0.000000      2.000000
 -0.266667  0.312500  0.000000      2.000000
 -0.200000  0.312500  0.000000      2.000000
 -0.133333  0.312500  0.000000      2.000000
 -0.066667  0.312500  0.000000      2.000000
  0.000000  0.375000  0.000000      2.000000
  0.066667  0.375000  0.000000      2.000000
  0.133333  0.375000  0.000000      2.000000
  0.200000  0.375000  0.000000      2.000000
  0.266667  0.375000  0.000000      2.000000
  0.333333  0.375000  0.000000      2.000000
  0.400000  0.375000  0.000000      2.000000
  0.466667  0.375000  0.000000      2.000000
 -0.466667  0.375000  0.000000      2.000000
 -0.400000  0.375000  0.000000      2.000000
 -0.333333  0.375000  0.000000      2.000000
 -0.266667  0.375000  0.000000      2.000000
 -0.200000  0.375000  0.000000      2.000000
 -0.133333  0.375000  0.000000      2.000000
 -0.066667  0.375000  0.000000      2.000000
  0.000000  0.437500  0.000000      2.000000
  0.066667  0.437500  0.000000      2.000000
  0.133333  0.437500  0.000000      2.000000
  0.200000  0.437500  0.000000      2.000000
  0.266667  0.437500  0.000000      2.000000
  0.333333  0.437500  0.000000      2.000000
  0.400000  0.437500  0.000000      2.000000
  0.466667  0.437500  0.000000      2.000000
 -0.466667  0.437500  0.000000      2.000000
 -0.400000  0.437500  0.000000      2.000000
 -0.333333  0.437500  0.000000      2.000000
 -0.266667  0.437500  0.000000      2.000000
 -0.200000  0.437500  0.000000      2.000000
 -0.133333  0.437500  0.000000      2.000000
 -0.066667  0.437500  0.000000      2.000000
  0.000000  0.500000  0.000000      1.000000
  0.066667  0.500000  0.000000      2.000000
  0.133333  0.500000  0.000000      2.000000
  0.200000  0.500000  0.000000      2.000000
  0.266667  0.500000  0.000000      2.000000
  0.333333  0.500000  0.000000      2.000000
  0.400000  0.500000  0.000000      2.000000
  0.466667  0.500000  0.000000      2.000000
  0.000000  0.000000  0.125000      2.000000
  0.066667  0.000000  0.125000      2.000000
  0.133333  0.000000  0.125000      2.000000
  0.200000  0.000000  0.125000      2.000000
  0.266667  0.000000  0.125000      2.000000
  0.333333  0.000000  0.125000      2.000000
  0.400000  0.000000  0.125000      2.000000
  0.466667  0.000000  0.125000      2.000000
 -0.466667  0.000000  0.125000      2.000000
 -0.400000  0.000000  0.125000      2.000000
 -0.333333  0.000000  0.125000      2.000000
 -0.266667  0.000000  0.125000      2.000000
 -0.200000  0.000000  0.125000      2.000000
 -0.133333  0.000000  0.125000      2.000000
 -0.066667  0.000000  0.125000      2.000000
  0.000000  0.062500  0.125000      2.000000
  0.066667  0.062500  0.125000      2.000000
  0.133333  0.062500  0.125000      2.000000
  0.200000  0.062500  0.125000      2.000000
  0.266667  0.062500  0.125000      2.000000
  0.333333  0.062500  0.125000      2.000000
  0.400000  0.062500  0.125000      2.000000
  0.466667  0.062500  0.125000      2.000000
 -0.466667  0.062500  0.125000      2.000000
 -0.400000  0.062500  0.125000      2.000000
 -0.333333  0.062500  0.125000      2.000000
 -0.266667  0.062500  0.125000      2.000000
 -0.200000  0.062500  0.125000      2.000000
 -0.133333  0.062500  0.125000      2.000000
 -0.066667  0.062500  0.125000      2.000000
  0.000000  0.125000  0.125000      2.000000
  0.066667  0.125000  0.125000      2.000000
  0.133333  0.125000  0.125000      2.000000
  0.200000  0.125000  0.125000      2.000000
  0.266667  0.125000  0.125000      2.000000
  0.333333  0.125000  0.125000      2.000000
  0.400000  0.125000  0.125000      2.000000
  0.466667  0.125000  0.125000      2.000000
 -0.466667  0.125000  0.125000      2.000000
 -0.400000  0.125000  0.125000      2.000000
 -0.333333  0.125000  0.125000      2.000000
 -0.266667  0.125000  0.125000      2.000000
 -0.200000  0.125000  0.125000      2.000000
 -0.133333  0.125000  0.125000      2.000000
 -0.066667  0.125000  0.125000      2.000000
  0.000000  0.187500  0.125000      2.000000
  0.066667  0.187500  0.125000      2.000000
  0.133333  0.187500  0.125000      2.000000
  0.200000  0.187500  0.125000      2.000000
  0.266667  0.187500  0.125000      2.000000
  0.333333  0.187500  0.125000      2.000000
  0.400000  0.187500  0.125000      2.000000
  0.466667  0.187500  0.125000      2.000000
 -0.466667  0.187500  0.125000      2.000000
 -0.400000  0.187500  0.125000      2.000000
 -0.333333  0.187500  0.125000      2.000000
 -0.266667  0.187500  0.125000      2.000000
 -0.200000  0.187500  0.125000      2.000000
 -0.133333  0.187500  0.125000      2.000000
 -0.066667  0.187500  0.125000      2.000000
  0.000000  0.250000  0.125000      2.000000
  0.066667  0.250000  0.125000      2.000000
  0.133333  0.250000  0.125000      2.000000
  0.200000  0.250000  0.125000      2.000000
  0.266667  0.250000  0.125000      2.000000
  0.333333  0.250000  0.125000      2.000000
  0.400000  0.250000  0.125000      2.000000
  0.466667  0.250000  0.125000      2.000000
 -0.466667  0.250000  0.125000      2.000000
 -0.400000  0.250000  0.125000      2.000000
 -0.333333  0.250000  0.125000      2.000000
 -0.266667  0.250000  0.125000      2.000000
 -0.200000  0.250000  0.125000      2.000000
 -0.133333  0.250000  0.125000      2.000000
 -0.066667  0.250000  0.125000      2.000000
  0.000000  0.312500  0.125000      2.000000
  0.066667  0.312500  0.125000      2.000000
  0.133333  0.312500  0.125000      2.000000
  0.200000  0.312500  0.125000      2.000000
  0.266667  0.312500  0.125000      2.000000
  0.333333  0.312500  0.125000      2.000000
  0.400000  0.312500  0.125000      2.000000
  0.466667  0.312500  0.125000      2.000000
 -0.466667  0.312500  0.125000      2.000000
 -0.400000  0.312500  0.125000      2.000000
 -0.333333  0.312500  0.125000      2.000000
 -0.266667  0.312500  0.125000      2.000000
 -0.200000  0.312500  0.125000      2.000000
 -0.133333  0.312500  0.125000      2.000000
 -0.066667  0.312500  0.125000      2.000000
  0.000000  0.375000  0.125000      2.000000
  0.066667  0.375000  0.125000      2.000000
  0.133333  0.375000  0.125000      2.000000
  0.200000  0.375000  0.125000      2.000000
  0.266667  0.375000  0.125000      2.000000
  0.333333  0.375000  0.125000      2.000000
  0.400000  0.375000  0.125000      2.000000
  0.466667  0.375000  0.125000      2.000000
 -0.466667  0.375000  0.125000      2.000000
 -0.400000  0.375000  0.125000      2.000000
 -0.333333  0.375000  0.125000      2.000000
 -0.266667  0.375000  0.125000      2.000000
 -0.200000  0.375000  0.125000      2.000000
 -0.133333  0.375000  0.125000      2.000000
 -0.066667  0.375000  0.125000      2.000000
  0.000000  0.437500  0.125000      2.000000
  0.066667  0.437500  0.125000      2.000000
  0.133333  0.437500  0.125000      2.000000
  0.200000  0.437500  0.125000      2.000000
  0.266667  0.437500  0.125000      2.000000
  0.333333  0.437500  0.125000      2.000000
  0.400000  0.437500  0.125000      2.000000
  0.466667  0.437500  0.125000      2.000000
 -0.466667  0.437500  0.125000      2.000000
 -0.400000  0.437500  0.125000      2.000000
 -0.333333  0.437500  0.125000      2.000000
 -0.266667  0.437500  0.125000      2.000000
 -0.200000  0.437500  0.125000      2.000000
 -0.133333  0.437500  0.125000      2.000000
 -0.066667  0.437500  0.125000      2.000000
  0.000000  0.500000  0.125000      2.000000
  0.066667  0.500000  0.125000      2.000000
  0.133333  0.500000  0.125000      2.000000
  0.200000  0.500000  0.125000      2.000000
  0.266667  0.500000  0.125000      2.000000
  0.333333  0.500000  0.125000      2.000000
  0.400000  0.500000  0.125000      2.000000
  0.466667  0.500000  0.125000      2.000000
 -0.466667  0.500000  0.125000      2.000000
 -0.400000  0.500000  0.125000      2.000000
 -0.333333  0.500000  0.125000      2.000000
 -0.266667  0.500000  0.125000      2.000000
 -0.200000  0.500000  0.125000      2.000000
 -0.133333  0.500000  0.125000      2.000000
 -0.066667  0.500000  0.125000      2.000000
  0.000000 -0.437500  0.125000      2.000000
  0.066667 -0.437500  0.125000      2.000000
  0.133333 -0.437500  0.125000      2.000000
  0.200000 -0.437500  0.125000      2.000000
  0.266667 -0.437500  0.125000      2.000000
  0.333333 -0.437500  0.125000      2.000000
  0.400000 -0.437500  0.125000      2.000000
  0.466667 -0.437500  0.125000      2.000000
 -0.466667 -0.437500  0.125000      2.000000
 -0.400000 -0.437500  0.125000      2.000000
 -0.333333 -0.437500  0.125000      2.000000
 -0.266667 -0.437500  0.125000      2.000000
 -0.200000 -0.437500  0.125000      2.000000
 -0.133333 -0.437500  0.125000      2.000000
 -0.066667 -0.437500  0.125000      2.000000
  0.000000 -0.375000  0.125000      2.000000
  0.066667 -0.375000  0.125000      2.000000
  0.133333 -0.375000  0.125000      2.000000
  0.200000 -0.375000  0.125000      2.000000
  0.266667 -0.375000  0.125000      2.000000
  0.333333 -0.375000  0.125000      2.000000
  0.400000 -0.375000  0.125000      2.000000
  0.466667 -0.375000  0.125000      2.000000
 -0.466667 -0.375000  0.125000      2.000000
 -0.400000 -0.375000  0.125000      2.000000
 -0.333333 -0.375000  0.125000      2.000000
 -0.266667 -0.375000  0.125000      2.000000
 -0.200000 -0.375000  0.125000      2.000000
 -0.133333 -0.375000  0.125000      2.000000
 -0.066667 -0.375000  0.125000      2.000000
  0.000000 -0.312500  0.125000      2.000000
  0.066667 -0.312500  0.125000      2.000000
  0.133333 -0.312500  0.125000      2.000000
  0.200000 -0.312500  0.125000      2.000000
  0.266667 -0.312500  0.125000      2.000000
  0.333333 -0.312500  0.125000      2.000000
  0.400000 -0.312500  0.125000      2.000000
  0.466667 -0.312500  0.125000      2.000000
 -0.466667 -0.312500  0.125000      2.000000
 -0.400000 -0.312500  0.125000      2.000000
 -0.333333 -0.312500  0.125000      2.000000
 -0.266667 -0.312500  0.125000      2.000000
 -0.200000 -0.312500  0.125000      2.000000
 -0.133333 -0.312500  0.125000      2.000000
 -0.066667 -0.312500  0.125000      2.000000
  0.000000 -0.250000  0.125000      2.000000
  0.066667 -0.250000  0.125000      2.000000
  0.133333 -0.250000  0.125000      2.000000
  0.200000 -0.250000  0.125000      2.000000
  0.266667 -0.250000  0.125000      2.000000
  0.333333 -0.250000  0.125000      2.000000
  0.400000 -0.250000  0.125000      2.000000
  0.466667 -0.250000  0.125000      2.000000
 -0.466667 -0.250000  0.125000      2.000000
 -0.400000 -0.250000  0.125000      2.000000
 -0.333333 -0.250000  0.125000      2.000000
 -0.266667 -0.250000  0.125000      2.000000
 -0.200000 -0.250000  0.125000      2.000000
 -0.133333 -0.250000  0.125000      2.000000
 -0.066667 -0.250000  0.125000      2.000000
  0.000000 -0.187500  0.125000      2.000000
  0.066667 -0.187500  0.125000      2.000000
  0.133333 -0.187500  0.125000      2.000000
  0.200000 -0.187500  0.125000      2.000000
  0.266667 -0.187500  0.125000      2.000000
  0.333333 -0.187500  0.125000      2.000000
  0.400000 -0.187500  0.125000      2.000000
  0.466667 -0.187500  0.125000      2.000000
 -0.466667 -0.187500  0.125000      2.000000
 -0.400000 -0.187500  0.125000      2.000000
 -0.333333 -0.187500  0.125000      2.000000
 -0.266667 -0.187500  0.125000      2.000000
 -0.200000 -0.187500  0.125000      2.000000
 -0.133333 -0.187500  0.125000      2.000000
 -0.066667 -0.187500  0.125000      2.000000
  0.000000 -0.125000  0.125000      2.000000
  0.066667 -0.125000  0.125000      2.000000
  0.133333 -0.125000  0.125000      2.000000
  0.200000 -0.125000  0.125000      2.000000
  0.266667 -0.125000  0.125000      2.000000
  0.333333 -0.125000  0.125000      2.000000
  0.400000 -0.125000  0.125000      2.000000
  0.466667 -0.125000  0.125000      2.000000
 -0.466667 -0.125000  0.125000      2.000000
 -0.400000 -0.125000  0.125000      2.000000
 -0.333333 -0.125000  0.125000      2.000000
 -0.266667 -0.125000  0.125000      2.000000
 -0.200000 -0.125000  0.125000      2.000000
 -0.133333 -0.125000  0.125000      2.000000
 -0.066667 -0.125000  0.125000      2.000000
  0.000000 -0.062500  0.125000      2.000000
  0.066667 -0.062500  0.125000      2.000000
  0.133333 -0.062500  0.125000      2.000000
  0.200000 -0.062500  0.125000      2.000000
  0.266667 -0.062500  0.125000      2.000000
  0.333333 -0.062500  0.125000      2.000000
  0.400000 -0.062500  0.125000      2.000000
  0.466667 -0.062500  0.125000      2.000000
 -0.466667 -0.062500  0.125000      2.000000
 -0.400000 -0.062500  0.125000      2.000000
 -0.333333 -0.062500  0.125000      2.000000
 -0.266667 -0.062500  0.125000      2.000000
 -0.200000 -0.062500  0.125000      2.000000
 -0.133333 -0.062500  0.125000      2.000000
 -0.066667 -0.062500  0.125000      2.000000
  0.000000  0.000000  0.250000      2.000000
  0.066667  0.000000  0.250000      2.000000
  0.133333  0.000000  0.250000      2.000000
  0.200000  0.000000  0.250000      2.000000
  0.266667  0.000000  0.250000      2.000000
  0.333333  0.000000  0.250000      2.000000
  0.400000  0.000000  0.250000      2.000000
  0.466667  0.000000  0.250000      2.000000
 -0.466667  0.000000  0.250000      2.000000
 -0.400000  0.000000  0.250000      2.000000
 -0.333333  0.000000  0.250000      2.000000
 -0.266667  0.000000  0.250000      2.000000
 -0.200000  0.000000  0.250000      2.000000
 -0.133333  0.000000  0.250000      2.000000
 -0.066667  0.000000  0.250000      2.000000
  0.000000  0.062500  0.250000      2.000000
  0.066667  0.062500  0.250000      2.000000
  0.133333  0.062500  0.250000      2.000000
  0.200000  0.062500  0.250000      2.000000
  0.266667  0.062500  0.250000      2.000000
  0.333333  0.062500  0.250000      2.000000
  0.400000  0.062500  0.250000      2.000000
  0.466667  0.062500  0.250000      2.000000
 -0.466667  0.062500  0.250000      2.000000
 -0.400000  0.062500  0.250000      2.000000
 -0.333333  0.062500  0.250000      2.000000
 -0.266667  0.062500  0.250000      2.000000
 -0.200000  0.062500  0.250000      2.000000
 -0.133333  0.062500  0.250000      2.000000
 -0.066667  0.062500  0.250000      2.000000
  0.000000  0.125000  0.250000      2.000000
  0.066667  0.125000  0.250000      2.000000
  0.133333  0.125000  0.250000      2.000000
  0.200000  0.125000  0.250000      2.000000
  0.266667  0.125000  0.250000      2.000000
  0.333333  0.125000  0.250000      2.000000
  0.400000  0.125000  0.250000      2.000000
  0.466667  0.125000  0.250000      2.000000
 -0.466667  0.125000  0.250000      2.000000
 -0.400000  0.125000  0.250000      2.000000
 -0.333333  0.125000  0.250000      2.000000
 -0.266667  0.125000  0.250000      2.000000
 -0.200000  0.125000  0.250000      2.000000
 -0.133333  0.125000  0.250000      2.000000
 -0.066667  0.125000  0.250000      2.000000
  0.000000  0.187500  0.250000      2.000000
  0.066667  0.187500  0.250000      2.000000
  0.133333  0.187500  0.250000      2.000000
  0.200000  0.187500  0.250000      2.000000
  0.266667  0.187500  0.250000      2.000000
  0.333333  0.187500  0.250000      2.000000
  0.400000  0.187500  0.250000      2.000000
  0.466667  0.187500  0.250000      2.000000
 -0.466667  0.187500  0.250000      2.000000
 -0.400000  0.187500  0.250000      2.000000
 -0.333333  0.187500  0.250000      2.000000
 -0.266667  0.187500  0.250000      2.000000
 -0.200000  0.187500  0.250000      2.000000
 -0.133333  0.187500  0.250000      2.000000
 -0.066667  0.187500  0.250000      2.000000
  0.000000  0.250000  0.250000      2.000000
  0.066667  0.250000  0.250000      2.000000
  0.133333  0.250000  0.250000      2.000000
  0.200000  0.250000  0.250000      2.000000
  0.266667  0.250000  0.250000      2.000000
  0.333333  0.250000  0.250000      2.000000
  0.400000  0.250000  0.250000      2.000000
  0.466667  0.250000  0.250000      2.000000
 -0.466667  0.250000  0.250000      2.000000
 -0.400000  0.250000  0.250000      2.000000
 -0.333333  0.250000  0.250000      2.000000
 -0.266667  0.250000  0.250000      2.000000
 -0.200000  0.250000  0.250000      2.000000
 -0.133333  0.250000  0.250000      2.000000
 -0.066667  0.250000  0.250000      2.000000
  0.000000  0.312500  0.250000      2.000000
  0.066667  0.312500  0.250000      2.000000
  0.133333  0.312500  0.250000      2.000000
  0.200000  0.312500  0.250000      2.000000
  0.266667  0.312500  0.250000      2.000000
  0.333333  0.312500  0.250000      2.000000
  0.400000  0.312500  0.250000      2.000000
  0.466667  0.312500  0.250000      2.000000
 -0.466667  0.312500  0.250000      2.000000
 -0.400000  0.312500  0.250000      2.000000
 -0.333333  0.312500  0.250000      2.000000
 -0.266667  0.312500  0.250000      2.000000
 -0.200000  0.312500  0.250000      2.000000
 -0.133333  0.312500  0.250000      2.000000
 -0.066667  0.312500  0.250000      2.000000
  0.000000  0.375000  0.250000      2.000000
  0.066667  0.375000  0.250000      2.000000
  0.133333  0.375000  0.250000      2.000000
  0.200000  0.375000  0.250000      2.000000
  0.266667  0.375000  0.250000      2.000000
  0.333333  0.375000  0.250000      2.000000
  0.400000  0.375000  0.250000      2.000000
  0.466667  0.375000  0.250000      2.000000
 -0.466667  0.375000  0.250000      2.000000
 -0.400000  0.375000  0.250000      2.000000
 -0.333333  0.375000  0.250000      2.000000
 -0.266667  0.375000  0.250000      2.000000
 -0.200000  0.375000  0.250000      2.000000
 -0.133333  0.375000  0.250000      2.000000
 -0.066667  0.375000  0.250000      2.000000
  0.000000  0.437500  0.250000      2.000000
  0.066667  0.437500  0.250000      2.000000
  0.133333  0.437500  0.250000      2.000000
  0.200000  0.437500  0.250000      2.000000
  0.266667  0.437500  0.250000      2.000000
  0.333333  0.437500  0.250000      2.000000
  0.400000  0.437500  0.250000      2.000000
  0.466667  0.437500  0.250000      2.000000
 -0.466667  0.437500  0.250000      2.000000
 -0.400000  0.437500  0.250000      2.000000
 -0.333333  0.437500  0.250000      2.000000
 -0.266667  0.437500  0.250000      2.000000
 -0.200000  0.437500  0.250000      2.000000
 -0.133333  0.437500  0.250000      2.000000
 -0.066667  0.437500  0.250000      2.000000
  0.000000  0.500000  0.250000      2.000000
  0.066667  0.500000  0.250000      2.000000
  0.133333  0.500000  0.250000      2.000000
  0.200000  0.500000  0.250000      2.000000
  0.266667  0.500000  0.250000      2.000000
  0.333333  0.500000  0.250000      2.000000
  0.400000  0.500000  0.250000      2.000000
  0.466667  0.500000  0.250000      2.000000
 -0.466667  0.500000  0.250000      2.000000
 -0.400000  0.500000  0.250000      2.000000
 -0.333333  0.500000  0.250000      2.000000
 -0.266667  0.500000  0.250000      2.000000
 -0.200000  0.500000  0.250000      2.000000
 -0.133333  0.500000  0.250000      2.000000
 -0.066667  0.500000  0.250000      2.000000
  0.000000 -0.437500  0.250000      2.000000
  0.066667 -0.437500  0.250000      2.000000
  0.133333 -0.437500  0.250000      2.000000
  0.200000 -0.437500  0.250000      2.000000
  0.266667 -0.437500  0.250000      2.000000
  0.333333 -0.437500  0.250000      2.000000
  0.400000 -0.437500  0.250000      2.000000
  0.466667 -0.437500  0.250000      2.000000
 -0.466667 -0.437500  0.250000      2.000000
 -0.400000 -0.437500  0.250000      2.000000
 -0.333333 -0.437500  0.250000      2.000000
 -0.266667 -0.437500  0.250000      2.000000
 -0.200000 -0.437500  0.250000      2.000000
 -0.133333 -0.437500  0.250000      2.000000
 -0.066667 -0.437500  0.250000      2.000000
  0.000000 -0.375000  0.250000      2.000000
  0.066667 -0.375000  0.250000      2.000000
  0.133333 -0.375000  0.250000      2.000000
  0.200000 -0.375000  0.250000      2.000000
  0.266667 -0.375000  0.250000      2.000000
  0.333333 -0.375000  0.250000      2.000000
  0.400000 -0.375000  0.250000      2.000000
  0.466667 -0.375000  0.250000      2.000000
 -0.466667 -0.375000  0.250000      2.000000
 -0.400000 -0.375000  0.250000      2.000000
 -0.333333 -0.375000  0.250000      2.000000
 -0.266667 -0.375000  0.250000      2.000000
 -0.200000 -0.375000  0.250000      2.000000
 -0.133333 -0.375000  0.250000      2.000000
 -0.066667 -0.375000  0.250000      2.000000
  0.000000 -0.312500  0.250000      2.000000
  0.066667 -0.312500  0.250000      2.000000
  0.133333 -0.312500  0.250000      2.000000
  0.200000 -0.312500  0.250000      2.000000
  0.266667 -0.312500  0.250000      2.000000
  0.333333 -0.312500  0.250000      2.000000
  0.400000 -0.312500  0.250000      2.000000
  0.466667 -0.312500  0.250000      2.000000
 -0.466667 -0.312500  0.250000      2.000000
 -0.400000 -0.312500  0.250000      2.000000
 -0.333333 -0.312500  0.250000      2.000000
 -0.266667 -0.312500  0.250000      2.000000
 -0.200000 -0.312500  0.250000      2.000000
 -0.133333 -0.312500  0.250000      2.000000
 -0.066667 -0.312500  0.250000      2.000000
  0.000000 -0.250000  0.250000      2.000000
  0.066667 -0.250000  0.250000      2.000000
  0.133333 -0.250000  0.250000      2.000000
  0.200000 -0.250000  0.250000      2.000000
  0.266667 -0.250000  0.250000      2.000000
  0.333333 -0.250000  0.250000      2.000000
  0.400000 -0.250000  0.250000      2.000000
  0.466667 -0.250000  0.250000      2.000000
 -0.466667 -0.250000  0.250000      2.000000
 -0.400000 -0.250000  0.250000      2.000000
 -0.333333 -0.250000  0.250000      2.000000
 -0.266667 -0.250000  0.250000      2.000000
 -0.200000 -0.250000  0.250000      2.000000
 -0.133333 -0.250000  0.250000      2.000000
 -0.066667 -0.250000  0.250000      2.000000
  0.000000 -0.187500  0.250000      2.000000
  0.066667 -0.187500  0.250000      2.000000
  0.133333 -0.187500  0.250000      2.000000
  0.200000 -0.187500  0.250000      2.000000
  0.266667 -0.187500  0.250000      2.000000
  0.333333 -0.187500  0.250000      2.000000
  0.400000 -0.187500  0.250000      2.000000
  0.466667 -0.187500  0.250000      2.000000
 -0.466667 -0.187500  0.250000      2.000000
 -0.400000 -0.187500  0.250000      2.000000
 -0.333333 -0.187500  0.250000      2.000000
 -0.266667 -0.187500  0.250000      2.000000
 -0.200000 -0.187500  0.250000      2.000000
 -0.133333 -0.187500  0.250000      2.000000
 -0.066667 -0.187500  0.250000      2.000000
  0.000000 -0.125000  0.250000      2.000000
  0.066667 -0.125000  0.250000      2.000000
  0.133333 -0.125000  0.250000      2.000000
  0.200000 -0.125000  0.250000      2.000000
  0.266667 -0.125000  0.250000      2.000000
  0.333333 -0.125000  0.250000      2.000000
  0.400000 -0.125000  0.250000      2.000000
  0.466667 -0.125000  0.250000      2.000000
 -0.466667 -0.125000  0.250000      2.000000
 -0.400000 -0.125000  0.250000      2.000000
 -0.333333 -0.125000  0.250000      2.000000
 -0.266667 -0.125000  0.250000      2.000000
 -0.200000 -0.125000  0.250000      2.000000
 -0.133333 -0.125000  0.250000      2.000000
 -0.066667 -0.125000  0.250000      2.000000
  0.000000 -0.062500  0.250000      2.000000
  0.066667 -0.062500  0.250000      2.000000
  0.133333 -0.062500  0.250000      2.000000
  0.200000 -0.062500  0.250000      2.000000
  0.266667 -0.062500  0.250000      2.000000
  0.333333 -0.062500  0.250000      2.000000
  0.400000 -0.062500  0.250000      2.000000
  0.466667 -0.062500  0.250000      2.000000
 -0.466667 -0.062500  0.250000      2.000000
 -0.400000 -0.062500  0.250000      2.000000
 -0.333333 -0.062500  0.250000      2.000000
 -0.266667 -0.062500  0.250000      2.000000
 -0.200000 -0.062500  0.250000      2.000000
 -0.133333 -0.062500  0.250000      2.000000
 -0.066667 -0.062500  0.250000      2.000000
  0.000000  0.000000  0.375000      2.000000
  0.066667  0.000000  0.375000      2.000000
  0.133333  0.000000  0.375000      2.000000
  0.200000  0.000000  0.375000      2.000000
  0.266667  0.000000  0.375000      2.000000
  0.333333  0.000000  0.375000      2.000000
  0.400000  0.000000  0.375000      2.000000
  0.466667  0.000000  0.375000      2.000000
 -0.466667  0.000000  0.375000      2.000000
 -0.400000  0.000000  0.375000      2.000000
 -0.333333  0.000000  0.375000      2.000000
 -0.266667  0.000000  0.375000      2.000000
 -0.200000  0.000000  0.375000      2.000000
 -0.133333  0.000000  0.375000      2.000000
 -0.066667  0.000000  0.375000      2.000000
  0.000000  0.062500  0.375000      2.000000
  0.066667  0.062500  0.375000      2.000000
  0.133333  0.062500  0.375000      2.000000
  0.200000  0.062500  0.375000      2.000000
  0.266667  0.062500  0.375000      2.000000
  0.333333  0.062500  0.375000      2.000000
  0.400000  0.062500  0.375000      2.000000
  0.466667  0.062500  0.375000      2.000000
 -0.466667  0.062500  0.375000      2.000000
 -0.400000  0.062500  0.375000      2.000000
 -0.333333  0.062500  0.375000      2.000000
 -0.266667  0.062500  0.375000      2.000000
 -0.200000  0.062500  0.375000      2.000000
 -0.133333  0.062500  0.375000      2.000000
 -0.066667  0.062500  0.375000      2.000000
  0.000000  0.125000  0.375000      2.000000
  0.066667  0.125000  0.375000      2.000000
  0.133333  0.125000  0.375000      2.000000
  0.200000  0.125000  0.375000      2.000000
  0.266667  0.125000  0.375000      2.000000
  0.333333  0.125000  0.375000      2.000000
  0.400000  0.125000  0.375000      2.000000
  0.466667  0.125000  0.375000      2.000000
 -0.466667  0.125000  0.375000      2.000000
 -0.400000  0.125000  0.375000      2.000000
 -0.333333  0.125000  0.375000      2.000000
 -0.266667  0.125000  0.375000      2.000000
 -0.200000  0.125000  0.375000      2.000000
 -0.133333  0.125000  0.375000      2.000000
 -0.066667  0.125000  0.375000      2.000000
  0.000000  0.187500  0.375000      2.000000
  0.066667  0.187500  0.375000      2.000000
  0.133333  0.187500  0.375000      2.000000
  0.200000  0.187500  0.375000      2.000000
  0.266667  0.187500  0.375000      2.000000
  0.333333  0.187500  0.375000      2.000000
  0.400000  0.187500  0.375000      2.000000
  0.466667  0.187500  0.375000      2.000000
 -0.466667  0.187500  0.375000      2.000000
 -0.400000  0.187500  0.375000      2.000000
 -0.333333  0.187500  0.375000      2.000000
 -0.266667  0.187500  0.375000      2.000000
 -0.200000  0.187500  0.375000      2.000000
 -0.133333  0.187500  0.375000      2.000000
 -0.066667  0.187500  0.375000      2.000000
  0.000000  0.250000  0.375000      2.000000
  0.066667  0.250000  0.375000      2.000000
  0.133333  0.250000  0.375000      2.000000
  0.200000  0.250000  0.375000      2.000000
  0.266667  0.250000  0.375000      2.000000
  0.333333  0.250000  0.375000      2.000000
  0.400000  0.250000  0.375000      2.000000
  0.466667  0.250000  0.375000      2.000000
 -0.466667  0.250000  0.375000      2.000000
 -0.400000  0.250000  0.375000      2.000000
 -0.333333  0.250000  0.375000      2.000000
 -0.266667  0.250000  0.375000      2.000000
 -0.200000  0.250000  0.375000      2.000000
 -0.133333  0.250000  0.375000      2.000000
 -0.066667  0.250000  0.375000      2.000000
  0.000000  0.312500  0.375000      2.000000
  0.066667  0.312500  0.375000      2.000000
  0.133333  0.312500  0.375000      2.000000
  0.200000  0.312500  0.375000      2.000000
  0.266667  0.312500  0.375000      2.000000
  0.333333  0.312500  0.375000      2.000000
  0.400000  0.312500  0.375000      2.000000
  0.466667  0.312500  0.375000      2.000000
 -0.466667  0.312500  0.375000      2.000000
 -0.400000  0.312500  0.375000      2.000000
 -0.333333  0.312500  0.375000      2.000000
 -0.266667  0.312500  0.375000      2.000000
 -0.200000  0.312500  0.375000      2.000000
 -0.133333  0.312500  0.375000      2.000000
 -0.066667  0.312500  0.375000      2.000000
  0.000000  0.375000  0.375000      2.000000
  0.066667  0.375000  0.375000      2.000000
  0.133333  0.375000  0.375000      2.000000
  0.200000  0.375000  0.375000      2.000000
  0.266667  0.375000  0.375000      2.000000
  0.333333  0.375000  0.375000      2.000000
  0.400000  0.375000  0.375000      2.000000
  0.466667  0.375000  0.375000      2.000000
 -0.466667  0.375000  0.375000      2.000000
 -0.400000  0.375000  0.375000      2.000000
 -0.333333  0.375000  0.375000      2.000000
 -0.266667  0.375000  0.375000      2.000000
 -0.200000  0.375000  0.375000      2.000000
 -0.133333  0.375000  0.375000      2.000000
 -0.066667  0.375000  0.375000      2.000000
  0.000000  0.437500  0.375000      2.000000
  0.066667  0.437500  0.375000      2.000000
  0.133333  0.437500  0.375000      2.000000
  0.200000  0.437500  0.375000      2.000000
  0.266667  0.437500  0.375000      2.000000
  0.333333  0.437500  0.375000      2.000000
  0.400000  0.437500  0.375000      2.000000
  0.466667  0.437500  0.375000      2.000000
 -0.466667  0.437500  0.375000      2.000000
 -0.400000  0.437500  0.375000      2.000000
 -0.333333  0.437500  0.375000      2.000000
 -0.266667  0.437500  0.375000      2.000000
 -0.200000  0.437500  0.375000      2.000000
 -0.133333  0.437500  0.375000      2.000000
 -0.066667  0.437500  0.375000      2.000000
  0.000000  0.500000  0.375000      2.000000
  0.066667  0.500000  0.375000      2.000000
  0.133333  0.500000  0.375000      2.000000
  0.200000  0.500000  0.375000      2.000000
  0.266667  0.500000  0.375000      2.000000
  0.333333  0.500000  0.375000      2.000000
  0.400000  0.500000  0.375000      2.000000
  0.466667  0.500000  0.375000      2.000000
 -0.466667  0.500000  0.375000      2.000000
 -0.400000  0.500000  0.375000      2.000000
 -0.333333  0.500000  0.375000      2.000000
 -0.266667  0.500000  0.375000      2.000000
 -0.200000  0.500000  0.375000      2.000000
 -0.133333  0.500000  0.375000      2.000000
 -0.066667  0.500000  0.375000      2.000000
  0.000000 -0.437500  0.375000      2.000000
  0.066667 -0.437500  0.375000      2.000000
  0.133333 -0.437500  0.375000      2.000000
  0.200000 -0.437500  0.375000      2.000000
  0.266667 -0.437500  0.375000      2.000000
  0.333333 -0.437500  0.375000      2.000000
  0.400000 -0.437500  0.375000      2.000000
  0.466667 -0.437500  0.375000      2.000000
 -0.466667 -0.437500  0.375000      2.000000
 -0.400000 -0.437500  0.375000      2.000000
 -0.333333 -0.437500  0.375000      2.000000
 -0.266667 -0.437500  0.375000      2.000000
 -0.200000 -0.437500  0.375000      2.000000
 -0.133333 -0.437500  0.375000      2.000000
 -0.066667 -0.437500  0.375000      2.000000
  0.000000 -0.375000  0.375000      2.000000
  0.066667 -0.375000  0.375000      2.000000
  0.133333 -0.375000  0.375000      2.000000
  0.200000 -0.375000  0.375000      2.000000
  0.266667 -0.375000  0.375000      2.000000
  0.333333 -0.375000  0.375000      2.000000
  0.400000 -0.375000  0.375000      2.000000
  0.466667 -0.375000  0.375000      2.000000
 -0.466667 -0.375000  0.375000      2.000000
 -0.400000 -0.375000  0.375000      2.000000
 -0.333333 -0.375000  0.375000      2.000000
 -0.266667 -0.375000  0.375000      2.000000
 -0.200000 -0.375000  0.375000      2.000000
 -0.133333 -0.375000  0.375000      2.000000
 -0.066667 -0.375000  0.375000      2.000000
  0.000000 -0.312500  0.375000      2.000000
  0.066667 -0.312500  0.375000      2.000000
  0.133333 -0.312500  0.375000      2.000000
  0.200000 -0.312500  0.375000      2.000000
  0.266667 -0.312500  0.375000      2.000000
  0.333333 -0.312500  0.375000      2.000000
  0.400000 -0.312500  0.375000      2.000000
  0.466667 -0.312500  0.375000      2.000000
 -0.466667 -0.312500  0.375000      2.000000
 -0.400000 -0.312500  0.375000      2.000000
 -0.333333 -0.312500  0.375000      2.000000
 -0.266667 -0.312500  0.375000      2.000000
 -0.200000 -0.312500  0.375000      2.000000
 -0.133333 -0.312500  0.375000      2.000000
 -0.066667 -0.312500  0.375000      2.000000
  0.000000 -0.250000  0.375000      2.000000
  0.066667 -0.250000  0.375000      2.000000
  0.133333 -0.250000  0.375000      2.000000
  0.200000 -0.250000  0.375000      2.000000
  0.266667 -0.250000  0.375000      2.000000
  0.333333 -0.250000  0.375000      2.000000
  0.400000 -0.250000  0.375000      2.000000
  0.466667 -0.250000  0.375000      2.000000
 -0.466667 -0.250000  0.375000      2.000000
 -0.400000 -0.250000  0.375000      2.000000
 -0.333333 -0.250000  0.375000      2.000000
 -0.266667 -0.250000  0.375000      2.000000
 -0.200000 -0.250000  0.375000      2.000000
 -0.133333 -0.250000  0.375000      2.000000
 -0.066667 -0.250000  0.375000      2.000000
  0.000000 -0.187500  0.375000      2.000000
  0.066667 -0.187500  0.375000      2.000000
  0.133333 -0.187500  0.375000      2.000000
  0.200000 -0.187500  0.375000      2.000000
  0.266667 -0.187500  0.375000      2.000000
  0.333333 -0.187500  0.375000      2.000000
  0.400000 -0.187500  0.375000      2.000000
  0.466667 -0.187500  0.375000      2.000000
 -0.466667 -0.187500  0.375000      2.000000
 -0.400000 -0.187500  0.375000      2.000000
 -0.333333 -0.187500  0.375000      2.000000
 -0.266667 -0.187500  0.375000      2.000000
 -0.200000 -0.187500  0.375000      2.000000
 -0.133333 -0.187500  0.375000      2.000000
 -0.066667 -0.187500  0.375000      2.000000
  0.000000 -0.125000  0.375000      2.000000
  0.066667 -0.125000  0.375000      2.000000
  0.133333 -0.125000  0.375000      2.000000
  0.200000 -0.125000  0.375000      2.000000
  0.266667 -0.125000  0.375000      2.000000
  0.333333 -0.125000  0.375000      2.000000
  0.400000 -0.125000  0.375000      2.000000
  0.466667 -0.125000  0.375000      2.000000
 -0.466667 -0.125000  0.375000      2.000000
 -0.400000 -0.125000  0.375000      2.000000
 -0.333333 -0.125000  0.375000      2.000000
 -0.266667 -0.125000  0.375000      2.000000
 -0.200000 -0.125000  0.375000      2.000000
 -0.133333 -0.125000  0.375000      2.000000
 -0.066667 -0.125000  0.375000      2.000000
  0.000000 -0.062500  0.375000      2.000000
  0.066667 -0.062500  0.375000      2.000000
  0.133333 -0.062500  0.375000      2.000000
  0.200000 -0.062500  0.375000      2.000000
  0.266667 -0.062500  0.375000      2.000000
  0.333333 -0.062500  0.375000      2.000000
  0.400000 -0.062500  0.375000      2.000000
  0.466667 -0.062500  0.375000      2.000000
 -0.466667 -0.062500  0.375000      2.000000
 -0.400000 -0.062500  0.375000      2.000000
 -0.333333 -0.062500  0.375000      2.000000
 -0.266667 -0.062500  0.375000      2.000000
 -0.200000 -0.062500  0.375000      2.000000
 -0.133333 -0.062500  0.375000      2.000000
 -0.066667 -0.062500  0.375000      2.000000
  0.000000  0.000000  0.500000      1.000000
  0.066667  0.000000  0.500000      2.000000
  0.133333  0.000000  0.500000      2.000000
  0.200000  0.000000  0.500000      2.000000
  0.266667  0.000000  0.500000      2.000000
  0.333333  0.000000  0.500000      2.000000
  0.400000  0.000000  0.500000      2.000000
  0.466667  0.000000  0.500000      2.000000
  0.000000  0.062500  0.500000      2.000000
  0.066667  0.062500  0.500000      2.000000
  0.133333  0.062500  0.500000      2.000000
  0.200000  0.062500  0.500000      2.000000
  0.266667  0.062500  0.500000      2.000000
  0.333333  0.062500  0.500000      2.000000
  0.400000  0.062500  0.500000      2.000000
  0.466667  0.062500  0.500000      2.000000
 -0.466667  0.062500  0.500000      2.000000
 -0.400000  0.062500  0.500000      2.000000
 -0.333333  0.062500  0.500000      2.000000
 -0.266667  0.062500  0.500000      2.000000
 -0.200000  0.062500  0.500000      2.000000
 -0.133333  0.062500  0.500000      2.000000
 -0.066667  0.062500  0.500000      2.000000
  0.000000  0.125000  0.500000      2.000000
  0.066667  0.125000  0.500000      2.000000
  0.133333  0.125000  0.500000      2.000000
  0.200000  0.125000  0.500000      2.000000
  0.266667  0.125000  0.500000      2.000000
  0.333333  0.125000  0.500000      2.000000
  0.400000  0.125000  0.500000      2.000000
  0.466667  0.125000  0.500000      2.000000
 -0.466667  0.125000  0.500000      2.000000
 -0.400000  0.125000  0.500000      2.000000
 -0.333333  0.125000  0.500000      2.000000
 -0.266667  0.125000  0.500000      2.000000
 -0.200000  0.125000  0.500000      2.000000
 -0.133333  0.125000  0.500000      2.000000
 -0.066667  0.125000  0.500000      2.000000
  0.000000  0.187500  0.500000      2.000000
  0.066667  0.187500  0.500000      2.000000
  0.133333  0.187500  0.500000      2.000000
  0.200000  0.187500  0.500000      2.000000
  0.266667  0.187500  0.500000      2.000000
  0.333333  0.187500  0.500000      2.000000
  0.400000  0.187500  0.500000      2.000000
  0.466667  0.187500  0.500000      2.000000
 -0.466667  0.187500  0.500000      2.000000
 -0.400000  0.187500  0.500000      2.000000
 -0.333333  0.187500  0.500000      2.000000
 -0.266667  0.187500  0.500000      2.000000
 -0.200000  0.187500  0.500000      2.000000
 -0.133333  0.187500  0.500000      2.000000
 -0.066667  0.187500  0.500000      2.000000
  0.000000  0.250000  0.500000      2.000000
  0.066667  0.250000  0.500000      2.000000
  0.133333  0.250000  0.500000      2.000000
  0.200000  0.250000  0.500000      2.000000
  0.266667  0.250000  0.500000      2.000000
  0.333333  0.250000  0.500000      2.000000
  0.400000  0.250000  0.500000      2.000000
  0.466667  0.250000  0.500000      2.000000
 -0.466667  0.250000  0.500000      2.000000
 -0.400000  0.250000  0.500000      2.000000
 -0.333333  0.250000  0.500000      2.000000
 -0.266667  0.250000  0.500000      2.000000
 -0.200000  0.250000  0.500000      2.000000
 -0.133333  0.250000  0.500000      2.000000
 -0.066667  0.250000  0.500000      2.000000
  0.000000  0.312500  0.500000      2.000000
  0.066667  0.312500  0.500000      2.000000
  0.133333  0.312500  0.500000      2.000000
  0.200000  0.312500  0.500000      2.000000
  0.266667  0.312500  0.500000      2.000000
  0.333333  0.312500  0.500000      2.000000
  0.400000  0.312500  0.500000      2.000000
  0.466667  0.312500  0.500000      2.000000
 -0.466667  0.312500  0.500000      2.000000
 -0.400000  0.312500  0.500000      2.000000
 -0.333333  0.312500  0.500000      2.000000
 -0.266667  0.312500  0.500000      2.000000
 -0.200000  0.312500  0.500000      2.000000
 -0.133333  0.312500  0.500000      2.000000
 -0.066667  0.312500  0.500000      2.000000
  0.000000  0.375000  0.500000      2.000000
  0.066667  0.375000  0.500000      2.000000
  0.133333  0.375000  0.500000      2.000000
  0.200000  0.375000  0.500000      2.000000
  0.266667  0.375000  0.500000      2.000000
  0.333333  0.375000  0.500000      2.000000
  0.400000  0.375000  0.500000      2.000000
  0.466667  0.375000  0.500000      2.000000
 -0.466667  0.375000  0.500000      2.000000
 -0.400000  0.375000  0.500000      2.000000
 -0.333333  0.375000  0.500000      2.000000
 -0.266667  0.375000  0.500000      2.000000
 -0.200000  0.375000  0.500000      2.000000
 -0.133333  0.375000  0.500000      2.000000
 -0.066667  0.375000  0.500000      2.000000
  0.000000  0.437500  0.500000      2.000000
  0.066667  0.437500  0.500000      2.000000
  0.133333  0.437500  0.500000      2.000000
  0.200000  0.437500  0.500000      2.000000
  0.266667  0.437500  0.500000      2.000000
  0.333333  0.437500  0.500000      2.000000
  0.400000  0.437500  0.500000      2.000000
  0.466667  0.437500  0.500000      2.000000
 -0.466667  0.437500  0.500000      2.000000
 -0.400000  0.437500  0.500000      2.000000
 -0.333333  0.437500  0.500000      2.000000
 -0.266667  0.437500  0.500000      2.000000
 -0.200000  0.437500  0.500000      2.000000
 -0.133333  0.437500  0.500000      2.000000
 -0.066667  0.437500  0.500000      2.000000
  0.000000  0.500000  0.500000      1.000000
  0.066667  0.500000  0.500000      2.000000
  0.133333  0.500000  0.500000      2.000000
  0.200000  0.500000  0.500000      2.000000
  0.266667  0.500000  0.500000      2.000000
  0.333333  0.500000  0.500000      2.000000
  0.400000  0.500000  0.500000      2.000000
  0.466667  0.500000  0.500000      2.000000
 
 Following cartesian coordinates:
            Coordinates               Weight
  0.000000  0.000000  0.000000      1.000000
  0.015970  0.009220  0.000000      2.000000
  0.031939  0.018440  0.000000      2.000000
  0.047909  0.027660  0.000000      2.000000
  0.063879  0.036880  0.000000      2.000000
  0.079848  0.046100  0.000000      2.000000
  0.095818  0.055320  0.000000      2.000000
  0.111787  0.064541  0.000000      2.000000
  0.000000  0.017288  0.000000      2.000000
  0.015970  0.026508  0.000000      2.000000
  0.031939  0.035728  0.000000      2.000000
  0.047909  0.044948  0.000000      2.000000
  0.063879  0.054168  0.000000      2.000000
  0.079848  0.063388  0.000000      2.000000
  0.095818  0.072608  0.000000      2.000000
  0.111787  0.081828  0.000000      2.000000
 -0.111787 -0.047253  0.000000      2.000000
 -0.095818 -0.038033  0.000000      2.000000
 -0.079848 -0.028813  0.000000      2.000000
 -0.063879 -0.019593  0.000000      2.000000
 -0.047909 -0.010373  0.000000      2.000000
 -0.031939 -0.001153  0.000000      2.000000
 -0.015970  0.008068  0.000000      2.000000
  0.000000  0.034575  0.000000      2.000000
  0.015970  0.043795  0.000000      2.000000
  0.031939  0.053015  0.000000      2.000000
  0.047909  0.062236  0.000000      2.000000
  0.063879  0.071456  0.000000      2.000000
  0.079848  0.080676  0.000000      2.000000
  0.095818  0.089896  0.000000      2.000000
  0.111787  0.099116  0.000000      2.000000
 -0.111787 -0.029965  0.000000      2.000000
 -0.095818 -0.020745  0.000000      2.000000
 -0.079848 -0.011525  0.000000      2.000000
 -0.063879 -0.002305  0.000000      2.000000
 -0.047909  0.006915  0.000000      2.000000
 -0.031939  0.016135  0.000000      2.000000
 -0.015970  0.025355  0.000000      2.000000
  0.000000  0.051863  0.000000      2.000000
  0.015970  0.061083  0.000000      2.000000
  0.031939  0.070303  0.000000      2.000000
  0.047909  0.079523  0.000000      2.000000
  0.063879  0.088743  0.000000      2.000000
  0.079848  0.097963  0.000000      2.000000
  0.095818  0.107183  0.000000      2.000000
  0.111787  0.116403  0.000000      2.000000
 -0.111787 -0.012678  0.000000      2.000000
 -0.095818 -0.003458  0.000000      2.000000
 -0.079848  0.005763  0.000000      2.000000
 -0.063879  0.014983  0.000000      2.000000
 -0.047909  0.024203  0.000000      2.000000
 -0.031939  0.033423  0.000000      2.000000
 -0.015970  0.042643  0.000000      2.000000
  0.000000  0.069151  0.000000      2.000000
  0.015970  0.078371  0.000000      2.000000
  0.031939  0.087591  0.000000      2.000000
  0.047909  0.096811  0.000000      2.000000
  0.063879  0.106031  0.000000      2.000000
  0.079848  0.115251  0.000000      2.000000
  0.095818  0.124471  0.000000      2.000000
  0.111787  0.133691  0.000000      2.000000
 -0.111787  0.004610  0.000000      2.000000
 -0.095818  0.013830  0.000000      2.000000
 -0.079848  0.023050  0.000000      2.000000
 -0.063879  0.032270  0.000000      2.000000
 -0.047909  0.041490  0.000000      2.000000
 -0.031939  0.050710  0.000000      2.000000
 -0.015970  0.059930  0.000000      2.000000
  0.000000  0.086438  0.000000      2.000000
  0.015970  0.095658  0.000000      2.000000
  0.031939  0.104878  0.000000      2.000000
  0.047909  0.114098  0.000000      2.000000
  0.063879  0.123319  0.000000      2.000000
  0.079848  0.132539  0.000000      2.000000
  0.095818  0.141759  0.000000      2.000000
  0.111787  0.150979  0.000000      2.000000
 -0.111787  0.021898  0.000000      2.000000
 -0.095818  0.031118  0.000000      2.000000
 -0.079848  0.040338  0.000000      2.000000
 -0.063879  0.049558  0.000000      2.000000
 -0.047909  0.058778  0.000000      2.000000
 -0.031939  0.067998  0.000000      2.000000
 -0.015970  0.077218  0.000000      2.000000
  0.000000  0.103726  0.000000      2.000000
  0.015970  0.112946  0.000000      2.000000
  0.031939  0.122166  0.000000      2.000000
  0.047909  0.131386  0.000000      2.000000
  0.063879  0.140606  0.000000      2.000000
  0.079848  0.149826  0.000000      2.000000
  0.095818  0.159046  0.000000      2.000000
  0.111787  0.168266  0.000000      2.000000
 -0.111787  0.039185  0.000000      2.000000
 -0.095818  0.048405  0.000000      2.000000
 -0.079848  0.057625  0.000000      2.000000
 -0.063879  0.066846  0.000000      2.000000
 -0.047909  0.076066  0.000000      2.000000
 -0.031939  0.085286  0.000000      2.000000
 -0.015970  0.094506  0.000000      2.000000
  0.000000  0.121013  0.000000      2.000000
  0.015970  0.130234  0.000000      2.000000
  0.031939  0.139454  0.000000      2.000000
  0.047909  0.148674  0.000000      2.000000
  0.063879  0.157894  0.000000      2.000000
  0.079848  0.167114  0.000000      2.000000
  0.095818  0.176334  0.000000      2.000000
  0.111787  0.185554  0.000000      2.000000
 -0.111787  0.056473  0.000000      2.000000
 -0.095818  0.065693  0.000000      2.000000
 -0.079848  0.074913  0.000000      2.000000
 -0.063879  0.084133  0.000000      2.000000
 -0.047909  0.093353  0.000000      2.000000
 -0.031939  0.102573  0.000000      2.000000
 -0.015970  0.111793  0.000000      2.000000
  0.000000  0.138301  0.000000      1.000000
  0.015970  0.147521  0.000000      2.000000
  0.031939  0.156741  0.000000      2.000000
  0.047909  0.165961  0.000000      2.000000
  0.063879  0.175181  0.000000      2.000000
  0.079848  0.184402  0.000000      2.000000
  0.095818  0.193622  0.000000      2.000000
  0.111787  0.202842  0.000000      2.000000
  0.000000  0.000000  0.024005      2.000000
  0.015970  0.009220  0.024005      2.000000
  0.031939  0.018440  0.024005      2.000000
  0.047909  0.027660  0.024005      2.000000
  0.063879  0.036880  0.024005      2.000000
  0.079848  0.046100  0.024005      2.000000
  0.095818  0.055320  0.024005      2.000000
  0.111787  0.064541  0.024005      2.000000
 -0.111787 -0.064541  0.024005      2.000000
 -0.095818 -0.055320  0.024005      2.000000
 -0.079848 -0.046100  0.024005      2.000000
 -0.063879 -0.036880  0.024005      2.000000
 -0.047909 -0.027660  0.024005      2.000000
 -0.031939 -0.018440  0.024005      2.000000
 -0.015970 -0.009220  0.024005      2.000000
  0.000000  0.017288  0.024005      2.000000
  0.015970  0.026508  0.024005      2.000000
  0.031939  0.035728  0.024005      2.000000
  0.047909  0.044948  0.024005      2.000000
  0.063879  0.054168  0.024005      2.000000
  0.079848  0.063388  0.024005      2.000000
  0.095818  0.072608  0.024005      2.000000
  0.111787  0.081828  0.024005      2.000000
 -0.111787 -0.047253  0.024005      2.000000
 -0.095818 -0.038033  0.024005      2.000000
 -0.079848 -0.028813  0.024005      2.000000
 -0.063879 -0.019593  0.024005      2.000000
 -0.047909 -0.010373  0.024005      2.000000
 -0.031939 -0.001153  0.024005      2.000000
 -0.015970  0.008068  0.024005      2.000000
  0.000000  0.034575  0.024005      2.000000
  0.015970  0.043795  0.024005      2.000000
  0.031939  0.053015  0.024005      2.000000
  0.047909  0.062236  0.024005      2.000000
  0.063879  0.071456  0.024005      2.000000
  0.079848  0.080676  0.024005      2.000000
  0.095818  0.089896  0.024005      2.000000
  0.111787  0.099116  0.024005      2.000000
 -0.111787 -0.029965  0.024005      2.000000
 -0.095818 -0.020745  0.024005      2.000000
 -0.079848 -0.011525  0.024005      2.000000
 -0.063879 -0.002305  0.024005      2.000000
 -0.047909  0.006915  0.024005      2.000000
 -0.031939  0.016135  0.024005      2.000000
 -0.015970  0.025355  0.024005      2.000000
  0.000000  0.051863  0.024005      2.000000
  0.015970  0.061083  0.024005      2.000000
  0.031939  0.070303  0.024005      2.000000
  0.047909  0.079523  0.024005      2.000000
  0.063879  0.088743  0.024005      2.000000
  0.079848  0.097963  0.024005      2.000000
  0.095818  0.107183  0.024005      2.000000
  0.111787  0.116403  0.024005      2.000000
 -0.111787 -0.012678  0.024005      2.000000
 -0.095818 -0.003458  0.024005      2.000000
 -0.079848  0.005763  0.024005      2.000000
 -0.063879  0.014983  0.024005      2.000000
 -0.047909  0.024203  0.024005      2.000000
 -0.031939  0.033423  0.024005      2.000000
 -0.015970  0.042643  0.024005      2.000000
  0.000000  0.069151  0.024005      2.000000
  0.015970  0.078371  0.024005      2.000000
  0.031939  0.087591  0.024005      2.000000
  0.047909  0.096811  0.024005      2.000000
  0.063879  0.106031  0.024005      2.000000
  0.079848  0.115251  0.024005      2.000000
  0.095818  0.124471  0.024005      2.000000
  0.111787  0.133691  0.024005      2.000000
 -0.111787  0.004610  0.024005      2.000000
 -0.095818  0.013830  0.024005      2.000000
 -0.079848  0.023050  0.024005      2.000000
 -0.063879  0.032270  0.024005      2.000000
 -0.047909  0.041490  0.024005      2.000000
 -0.031939  0.050710  0.024005      2.000000
 -0.015970  0.059930  0.024005      2.000000
  0.000000  0.086438  0.024005      2.000000
  0.015970  0.095658  0.024005      2.000000
  0.031939  0.104878  0.024005      2.000000
  0.047909  0.114098  0.024005      2.000000
  0.063879  0.123319  0.024005      2.000000
  0.079848  0.132539  0.024005      2.000000
  0.095818  0.141759  0.024005      2.000000
  0.111787  0.150979  0.024005      2.000000
 -0.111787  0.021898  0.024005      2.000000
 -0.095818  0.031118  0.024005      2.000000
 -0.079848  0.040338  0.024005      2.000000
 -0.063879  0.049558  0.024005      2.000000
 -0.047909  0.058778  0.024005      2.000000
 -0.031939  0.067998  0.024005      2.000000
 -0.015970  0.077218  0.024005      2.000000
  0.000000  0.103726  0.024005      2.000000
  0.015970  0.112946  0.024005      2.000000
  0.031939  0.122166  0.024005      2.000000
  0.047909  0.131386  0.024005      2.000000
  0.063879  0.140606  0.024005      2.000000
  0.079848  0.149826  0.024005      2.000000
  0.095818  0.159046  0.024005      2.000000
  0.111787  0.168266  0.024005      2.000000
 -0.111787  0.039185  0.024005      2.000000
 -0.095818  0.048405  0.024005      2.000000
 -0.079848  0.057625  0.024005      2.000000
 -0.063879  0.066846  0.024005      2.000000
 -0.047909  0.076066  0.024005      2.000000
 -0.031939  0.085286  0.024005      2.000000
 -0.015970  0.094506  0.024005      2.000000
  0.000000  0.121013  0.024005      2.000000
  0.015970  0.130234  0.024005      2.000000
  0.031939  0.139454  0.024005      2.000000
  0.047909  0.148674  0.024005      2.000000
  0.063879  0.157894  0.024005      2.000000
  0.079848  0.167114  0.024005      2.000000
  0.095818  0.176334  0.024005      2.000000
  0.111787  0.185554  0.024005      2.000000
 -0.111787  0.056473  0.024005      2.000000
 -0.095818  0.065693  0.024005      2.000000
 -0.079848  0.074913  0.024005      2.000000
 -0.063879  0.084133  0.024005      2.000000
 -0.047909  0.093353  0.024005      2.000000
 -0.031939  0.102573  0.024005      2.000000
 -0.015970  0.111793  0.024005      2.000000
  0.000000  0.138301  0.024005      2.000000
  0.015970  0.147521  0.024005      2.000000
  0.031939  0.156741  0.024005      2.000000
  0.047909  0.165961  0.024005      2.000000
  0.063879  0.175181  0.024005      2.000000
  0.079848  0.184402  0.024005      2.000000
  0.095818  0.193622  0.024005      2.000000
  0.111787  0.202842  0.024005      2.000000
 -0.111787  0.073761  0.024005      2.000000
 -0.095818  0.082981  0.024005      2.000000
 -0.079848  0.092201  0.024005      2.000000
 -0.063879  0.101421  0.024005      2.000000
 -0.047909  0.110641  0.024005      2.000000
 -0.031939  0.119861  0.024005      2.000000
 -0.015970  0.129081  0.024005      2.000000
  0.000000 -0.121013  0.024005      2.000000
  0.015970 -0.111793  0.024005      2.000000
  0.031939 -0.102573  0.024005      2.000000
  0.047909 -0.093353  0.024005      2.000000
  0.063879 -0.084133  0.024005      2.000000
  0.079848 -0.074913  0.024005      2.000000
  0.095818 -0.065693  0.024005      2.000000
  0.111787 -0.056473  0.024005      2.000000
 -0.111787 -0.185554  0.024005      2.000000
 -0.095818 -0.176334  0.024005      2.000000
 -0.079848 -0.167114  0.024005      2.000000
 -0.063879 -0.157894  0.024005      2.000000
 -0.047909 -0.148674  0.024005      2.000000
 -0.031939 -0.139454  0.024005      2.000000
 -0.015970 -0.130234  0.024005      2.000000
  0.000000 -0.103726  0.024005      2.000000
  0.015970 -0.094506  0.024005      2.000000
  0.031939 -0.085286  0.024005      2.000000
  0.047909 -0.076066  0.024005      2.000000
  0.063879 -0.066846  0.024005      2.000000
  0.079848 -0.057625  0.024005      2.000000
  0.095818 -0.048405  0.024005      2.000000
  0.111787 -0.039185  0.024005      2.000000
 -0.111787 -0.168266  0.024005      2.000000
 -0.095818 -0.159046  0.024005      2.000000
 -0.079848 -0.149826  0.024005      2.000000
 -0.063879 -0.140606  0.024005      2.000000
 -0.047909 -0.131386  0.024005      2.000000
 -0.031939 -0.122166  0.024005      2.000000
 -0.015970 -0.112946  0.024005      2.000000
  0.000000 -0.086438  0.024005      2.000000
  0.015970 -0.077218  0.024005      2.000000
  0.031939 -0.067998  0.024005      2.000000
  0.047909 -0.058778  0.024005      2.000000
  0.063879 -0.049558  0.024005      2.000000
  0.079848 -0.040338  0.024005      2.000000
  0.095818 -0.031118  0.024005      2.000000
  0.111787 -0.021898  0.024005      2.000000
 -0.111787 -0.150979  0.024005      2.000000
 -0.095818 -0.141759  0.024005      2.000000
 -0.079848 -0.132539  0.024005      2.000000
 -0.063879 -0.123319  0.024005      2.000000
 -0.047909 -0.114098  0.024005      2.000000
 -0.031939 -0.104878  0.024005      2.000000
 -0.015970 -0.095658  0.024005      2.000000
  0.000000 -0.069151  0.024005      2.000000
  0.015970 -0.059930  0.024005      2.000000
  0.031939 -0.050710  0.024005      2.000000
  0.047909 -0.041490  0.024005      2.000000
  0.063879 -0.032270  0.024005      2.000000
  0.079848 -0.023050  0.024005      2.000000
  0.095818 -0.013830  0.024005      2.000000
  0.111787 -0.004610  0.024005      2.000000
 -0.111787 -0.133691  0.024005      2.000000
 -0.095818 -0.124471  0.024005      2.000000
 -0.079848 -0.115251  0.024005      2.000000
 -0.063879 -0.106031  0.024005      2.000000
 -0.047909 -0.096811  0.024005      2.000000
 -0.031939 -0.087591  0.024005      2.000000
 -0.015970 -0.078371  0.024005      2.000000
  0.000000 -0.051863  0.024005      2.000000
  0.015970 -0.042643  0.024005      2.000000
  0.031939 -0.033423  0.024005      2.000000
  0.047909 -0.024203  0.024005      2.000000
  0.063879 -0.014983  0.024005      2.000000
  0.079848 -0.005763  0.024005      2.000000
  0.095818  0.003458  0.024005      2.000000
  0.111787  0.012678  0.024005      2.000000
 -0.111787 -0.116403  0.024005      2.000000
 -0.095818 -0.107183  0.024005      2.000000
 -0.079848 -0.097963  0.024005      2.000000
 -0.063879 -0.088743  0.024005      2.000000
 -0.047909 -0.079523  0.024005      2.000000
 -0.031939 -0.070303  0.024005      2.000000
 -0.015970 -0.061083  0.024005      2.000000
  0.000000 -0.034575  0.024005      2.000000
  0.015970 -0.025355  0.024005      2.000000
  0.031939 -0.016135  0.024005      2.000000
  0.047909 -0.006915  0.024005      2.000000
  0.063879  0.002305  0.024005      2.000000
  0.079848  0.011525  0.024005      2.000000
  0.095818  0.020745  0.024005      2.000000
  0.111787  0.029965  0.024005      2.000000
 -0.111787 -0.099116  0.024005      2.000000
 -0.095818 -0.089896  0.024005      2.000000
 -0.079848 -0.080676  0.024005      2.000000
 -0.063879 -0.071456  0.024005      2.000000
 -0.047909 -0.062236  0.024005      2.000000
 -0.031939 -0.053015  0.024005      2.000000
 -0.015970 -0.043795  0.024005      2.000000
  0.000000 -0.017288  0.024005      2.000000
  0.015970 -0.008068  0.024005      2.000000
  0.031939  0.001153  0.024005      2.000000
  0.047909  0.010373  0.024005      2.000000
  0.063879  0.019593  0.024005      2.000000
  0.079848  0.028813  0.024005      2.000000
  0.095818  0.038033  0.024005      2.000000
  0.111787  0.047253  0.024005      2.000000
 -0.111787 -0.081828  0.024005      2.000000
 -0.095818 -0.072608  0.024005      2.000000
 -0.079848 -0.063388  0.024005      2.000000
 -0.063879 -0.054168  0.024005      2.000000
 -0.047909 -0.044948  0.024005      2.000000
 -0.031939 -0.035728  0.024005      2.000000
 -0.015970 -0.026508  0.024005      2.000000
  0.000000  0.000000  0.048010      2.000000
  0.015970  0.009220  0.048010      2.000000
  0.031939  0.018440  0.048010      2.000000
  0.047909  0.027660  0.048010      2.000000
  0.063879  0.036880  0.048010      2.000000
  0.079848  0.046100  0.048010      2.000000
  0.095818  0.055320  0.048010      2.000000
  0.111787  0.064541  0.048010      2.000000
 -0.111787 -0.064541  0.048010      2.000000
 -0.095818 -0.055320  0.048010      2.000000
 -0.079848 -0.046100  0.048010      2.000000
 -0.063879 -0.036880  0.048010      2.000000
 -0.047909 -0.027660  0.048010      2.000000
 -0.031939 -0.018440  0.048010      2.000000
 -0.015970 -0.009220  0.048010      2.000000
  0.000000  0.017288  0.048010      2.000000
  0.015970  0.026508  0.048010      2.000000
  0.031939  0.035728  0.048010      2.000000
  0.047909  0.044948  0.048010      2.000000
  0.063879  0.054168  0.048010      2.000000
  0.079848  0.063388  0.048010      2.000000
  0.095818  0.072608  0.048010      2.000000
  0.111787  0.081828  0.048010      2.000000
 -0.111787 -0.047253  0.048010      2.000000
 -0.095818 -0.038033  0.048010      2.000000
 -0.079848 -0.028813  0.048010      2.000000
 -0.063879 -0.019593  0.048010      2.000000
 -0.047909 -0.010373  0.048010      2.000000
 -0.031939 -0.001153  0.048010      2.000000
 -0.015970  0.008068  0.048010      2.000000
  0.000000  0.034575  0.048010      2.000000
  0.015970  0.043795  0.048010      2.000000
  0.031939  0.053015  0.048010      2.000000
  0.047909  0.062236  0.048010      2.000000
  0.063879  0.071456  0.048010      2.000000
  0.079848  0.080676  0.048010      2.000000
  0.095818  0.089896  0.048010      2.000000
  0.111787  0.099116  0.048010      2.000000
 -0.111787 -0.029965  0.048010      2.000000
 -0.095818 -0.020745  0.048010      2.000000
 -0.079848 -0.011525  0.048010      2.000000
 -0.063879 -0.002305  0.048010      2.000000
 -0.047909  0.006915  0.048010      2.000000
 -0.031939  0.016135  0.048010      2.000000
 -0.015970  0.025355  0.048010      2.000000
  0.000000  0.051863  0.048010      2.000000
  0.015970  0.061083  0.048010      2.000000
  0.031939  0.070303  0.048010      2.000000
  0.047909  0.079523  0.048010      2.000000
  0.063879  0.088743  0.048010      2.000000
  0.079848  0.097963  0.048010      2.000000
  0.095818  0.107183  0.048010      2.000000
  0.111787  0.116403  0.048010      2.000000
 -0.111787 -0.012678  0.048010      2.000000
 -0.095818 -0.003458  0.048010      2.000000
 -0.079848  0.005763  0.048010      2.000000
 -0.063879  0.014983  0.048010      2.000000
 -0.047909  0.024203  0.048010      2.000000
 -0.031939  0.033423  0.048010      2.000000
 -0.015970  0.042643  0.048010      2.000000
  0.000000  0.069151  0.048010      2.000000
  0.015970  0.078371  0.048010      2.000000
  0.031939  0.087591  0.048010      2.000000
  0.047909  0.096811  0.048010      2.000000
  0.063879  0.106031  0.048010      2.000000
  0.079848  0.115251  0.048010      2.000000
  0.095818  0.124471  0.048010      2.000000
  0.111787  0.133691  0.048010      2.000000
 -0.111787  0.004610  0.048010      2.000000
 -0.095818  0.013830  0.048010      2.000000
 -0.079848  0.023050  0.048010      2.000000
 -0.063879  0.032270  0.048010      2.000000
 -0.047909  0.041490  0.048010      2.000000
 -0.031939  0.050710  0.048010      2.000000
 -0.015970  0.059930  0.048010      2.000000
  0.000000  0.086438  0.048010      2.000000
  0.015970  0.095658  0.048010      2.000000
  0.031939  0.104878  0.048010      2.000000
  0.047909  0.114098  0.048010      2.000000
  0.063879  0.123319  0.048010      2.000000
  0.079848  0.132539  0.048010      2.000000
  0.095818  0.141759  0.048010      2.000000
  0.111787  0.150979  0.048010      2.000000
 -0.111787  0.021898  0.048010      2.000000
 -0.095818  0.031118  0.048010      2.000000
 -0.079848  0.040338  0.048010      2.000000
 -0.063879  0.049558  0.048010      2.000000
 -0.047909  0.058778  0.048010      2.000000
 -0.031939  0.067998  0.048010      2.000000
 -0.015970  0.077218  0.048010      2.000000
  0.000000  0.103726  0.048010      2.000000
  0.015970  0.112946  0.048010      2.000000
  0.031939  0.122166  0.048010      2.000000
  0.047909  0.131386  0.048010      2.000000
  0.063879  0.140606  0.048010      2.000000
  0.079848  0.149826  0.048010      2.000000
  0.095818  0.159046  0.048010      2.000000
  0.111787  0.168266  0.048010      2.000000
 -0.111787  0.039185  0.048010      2.000000
 -0.095818  0.048405  0.048010      2.000000
 -0.079848  0.057625  0.048010      2.000000
 -0.063879  0.066846  0.048010      2.000000
 -0.047909  0.076066  0.048010      2.000000
 -0.031939  0.085286  0.048010      2.000000
 -0.015970  0.094506  0.048010      2.000000
  0.000000  0.121013  0.048010      2.000000
  0.015970  0.130234  0.048010      2.000000
  0.031939  0.139454  0.048010      2.000000
  0.047909  0.148674  0.048010      2.000000
  0.063879  0.157894  0.048010      2.000000
  0.079848  0.167114  0.048010      2.000000
  0.095818  0.176334  0.048010      2.000000
  0.111787  0.185554  0.048010      2.000000
 -0.111787  0.056473  0.048010      2.000000
 -0.095818  0.065693  0.048010      2.000000
 -0.079848  0.074913  0.048010      2.000000
 -0.063879  0.084133  0.048010      2.000000
 -0.047909  0.093353  0.048010      2.000000
 -0.031939  0.102573  0.048010      2.000000
 -0.015970  0.111793  0.048010      2.000000
  0.000000  0.138301  0.048010      2.000000
  0.015970  0.147521  0.048010      2.000000
  0.031939  0.156741  0.048010      2.000000
  0.047909  0.165961  0.048010      2.000000
  0.063879  0.175181  0.048010      2.000000
  0.079848  0.184402  0.048010      2.000000
  0.095818  0.193622  0.048010      2.000000
  0.111787  0.202842  0.048010      2.000000
 -0.111787  0.073761  0.048010      2.000000
 -0.095818  0.082981  0.048010      2.000000
 -0.079848  0.092201  0.048010      2.000000
 -0.063879  0.101421  0.048010      2.000000
 -0.047909  0.110641  0.048010      2.000000
 -0.031939  0.119861  0.048010      2.000000
 -0.015970  0.129081  0.048010      2.000000
  0.000000 -0.121013  0.048010      2.000000
  0.015970 -0.111793  0.048010      2.000000
  0.031939 -0.102573  0.048010      2.000000
  0.047909 -0.093353  0.048010      2.000000
  0.063879 -0.084133  0.048010      2.000000
  0.079848 -0.074913  0.048010      2.000000
  0.095818 -0.065693  0.048010      2.000000
  0.111787 -0.056473  0.048010      2.000000
 -0.111787 -0.185554  0.048010      2.000000
 -0.095818 -0.176334  0.048010      2.000000
 -0.079848 -0.167114  0.048010      2.000000
 -0.063879 -0.157894  0.048010      2.000000
 -0.047909 -0.148674  0.048010      2.000000
 -0.031939 -0.139454  0.048010      2.000000
 -0.015970 -0.130234  0.048010      2.000000
  0.000000 -0.103726  0.048010      2.000000
  0.015970 -0.094506  0.048010      2.000000
  0.031939 -0.085286  0.048010      2.000000
  0.047909 -0.076066  0.048010      2.000000
  0.063879 -0.066846  0.048010      2.000000
  0.079848 -0.057625  0.048010      2.000000
  0.095818 -0.048405  0.048010      2.000000
  0.111787 -0.039185  0.048010      2.000000
 -0.111787 -0.168266  0.048010      2.000000
 -0.095818 -0.159046  0.048010      2.000000
 -0.079848 -0.149826  0.048010      2.000000
 -0.063879 -0.140606  0.048010      2.000000
 -0.047909 -0.131386  0.048010      2.000000
 -0.031939 -0.122166  0.048010      2.000000
 -0.015970 -0.112946  0.048010      2.000000
  0.000000 -0.086438  0.048010      2.000000
  0.015970 -0.077218  0.048010      2.000000
  0.031939 -0.067998  0.048010      2.000000
  0.047909 -0.058778  0.048010      2.000000
  0.063879 -0.049558  0.048010      2.000000
  0.079848 -0.040338  0.048010      2.000000
  0.095818 -0.031118  0.048010      2.000000
  0.111787 -0.021898  0.048010      2.000000
 -0.111787 -0.150979  0.048010      2.000000
 -0.095818 -0.141759  0.048010      2.000000
 -0.079848 -0.132539  0.048010      2.000000
 -0.063879 -0.123319  0.048010      2.000000
 -0.047909 -0.114098  0.048010      2.000000
 -0.031939 -0.104878  0.048010      2.000000
 -0.015970 -0.095658  0.048010      2.000000
  0.000000 -0.069151  0.048010      2.000000
  0.015970 -0.059930  0.048010      2.000000
  0.031939 -0.050710  0.048010      2.000000
  0.047909 -0.041490  0.048010      2.000000
  0.063879 -0.032270  0.048010      2.000000
  0.079848 -0.023050  0.048010      2.000000
  0.095818 -0.013830  0.048010      2.000000
  0.111787 -0.004610  0.048010      2.000000
 -0.111787 -0.133691  0.048010      2.000000
 -0.095818 -0.124471  0.048010      2.000000
 -0.079848 -0.115251  0.048010      2.000000
 -0.063879 -0.106031  0.048010      2.000000
 -0.047909 -0.096811  0.048010      2.000000
 -0.031939 -0.087591  0.048010      2.000000
 -0.015970 -0.078371  0.048010      2.000000
  0.000000 -0.051863  0.048010      2.000000
  0.015970 -0.042643  0.048010      2.000000
  0.031939 -0.033423  0.048010      2.000000
  0.047909 -0.024203  0.048010      2.000000
  0.063879 -0.014983  0.048010      2.000000
  0.079848 -0.005763  0.048010      2.000000
  0.095818  0.003458  0.048010      2.000000
  0.111787  0.012678  0.048010      2.000000
 -0.111787 -0.116403  0.048010      2.000000
 -0.095818 -0.107183  0.048010      2.000000
 -0.079848 -0.097963  0.048010      2.000000
 -0.063879 -0.088743  0.048010      2.000000
 -0.047909 -0.079523  0.048010      2.000000
 -0.031939 -0.070303  0.048010      2.000000
 -0.015970 -0.061083  0.048010      2.000000
  0.000000 -0.034575  0.048010      2.000000
  0.015970 -0.025355  0.048010      2.000000
  0.031939 -0.016135  0.048010      2.000000
  0.047909 -0.006915  0.048010      2.000000
  0.063879  0.002305  0.048010      2.000000
  0.079848  0.011525  0.048010      2.000000
  0.095818  0.020745  0.048010      2.000000
  0.111787  0.029965  0.048010      2.000000
 -0.111787 -0.099116  0.048010      2.000000
 -0.095818 -0.089896  0.048010      2.000000
 -0.079848 -0.080676  0.048010      2.000000
 -0.063879 -0.071456  0.048010      2.000000
 -0.047909 -0.062236  0.048010      2.000000
 -0.031939 -0.053015  0.048010      2.000000
 -0.015970 -0.043795  0.048010      2.000000
  0.000000 -0.017288  0.048010      2.000000
  0.015970 -0.008068  0.048010      2.000000
  0.031939  0.001153  0.048010      2.000000
  0.047909  0.010373  0.048010      2.000000
  0.063879  0.019593  0.048010      2.000000
  0.079848  0.028813  0.048010      2.000000
  0.095818  0.038033  0.048010      2.000000
  0.111787  0.047253  0.048010      2.000000
 -0.111787 -0.081828  0.048010      2.000000
 -0.095818 -0.072608  0.048010      2.000000
 -0.079848 -0.063388  0.048010      2.000000
 -0.063879 -0.054168  0.048010      2.000000
[...]
     24       7.4092      0.00000

 k-point 952 :      -0.2000    0.4375    0.5000
  band No.  band energies     occupation 
      1     -32.3548      2.00000
      2     -21.3761      2.00000
      3     -21.3322      2.00000
      4     -21.2753      2.00000
      5     -21.2709      2.00000
      6     -21.2644      2.00000
      7     -21.2315      2.00000
      8     -21.2141      2.00000
      9     -21.1853      2.00000
     10     -21.1670      2.00000
     11     -21.1600      2.00000
     12     -14.5611      2.00000
     13     -14.5414      2.00000
     14     -14.4366      2.00000
     15      -6.4980      2.00000
     16      -3.6986      2.00000
     17      -0.0220      2.00000
     18       0.1237      2.00000
     19       1.9627      2.00000
     20       5.0773      0.00000
     21       5.7012      0.00000
     22       6.5190      0.00000
     23       6.8694      0.00000
     24       7.1521      0.00000

 k-point 953 :      -0.1333    0.4375    0.5000
  band No.  band energies     occupation 
      1     -32.3546      2.00000
      2     -21.3743      2.00000
      3     -21.3339      2.00000
      4     -21.2785      2.00000
      5     -21.2703      2.00000
      6     -21.2630      2.00000
      7     -21.2283      2.00000
      8     -21.2154      2.00000
      9     -21.1846      2.00000
     10     -21.1673      2.00000
     11     -21.1611      2.00000
     12     -14.5626      2.00000
     13     -14.5523      2.00000
     14     -14.4264      2.00000
     15      -6.4642      2.00000
     16      -3.7743      2.00000
     17      -0.0572      2.00000
     18       0.3507      2.00000
     19       1.7839      2.00000
     20       4.8149      0.00000
     21       5.7096      0.00000
     22       6.4624      0.00000
     23       6.6963      0.00000
     24       7.7574      0.00000

 k-point 954 :      -0.0667    0.4375    0.5000
  band No.  band energies     occupation 
      1     -32.3541      2.00000
      2     -21.3714      2.00000
      3     -21.3366      2.00000
      4     -21.2807      2.00000
      5     -21.2728      2.00000
      6     -21.2597      2.00000
      7     -21.2231      2.00000
      8     -21.2177      2.00000
      9     -21.1836      2.00000
     10     -21.1680      2.00000
     11     -21.1628      2.00000
     12     -14.5763      2.00000
     13     -14.5552      2.00000
     14     -14.4147      2.00000
     15      -6.3891      2.00000
     16      -3.9216      2.00000
     17       0.0195      2.00000
     18       0.6243      2.00000
     19       1.4700      2.00000
     20       4.3585      0.00000
     21       5.8097      0.00000
     22       6.3697      0.00000
     23       6.8646      0.00000
     24       8.3355      0.00000

 k-point 955 :       0.0000    0.5000    0.5000
  band No.  band energies     occupation 
      1     -32.3530      2.00000
      2     -21.3699      2.00000
      3     -21.3346      2.00000
      4     -21.2800      2.00000
      5     -21.2799      2.00000
      6     -21.2538      2.00000
      7     -21.2241      2.00000
      8     -21.2169      2.00000
      9     -21.1827      2.00000
     10     -21.1697      2.00000
     11     -21.1636      2.00000
     12     -14.5975      2.00000
     13     -14.5499      2.00000
     14     -14.4129      2.00000
     15      -6.1485      2.00000
     16      -4.2869      2.00000
     17       0.4217      2.00000
     18       0.6990      2.00000
     19       0.9326      2.00000
     20       4.1191     -0.00012
     21       5.7261      0.00000
     22       6.3092      0.00000
     23       7.2789      0.00000
     24       8.6456      0.00000

 k-point 956 :       0.0667    0.5000    0.5000
  band No.  band energies     occupation 
      1     -32.3530      2.00000
      2     -21.3717      2.00000
      3     -21.3322      2.00000
      4     -21.2798      2.00000
      5     -21.2790      2.00000
      6     -21.2545      2.00000
      7     -21.2246      2.00000
      8     -21.2190      2.00000
      9     -21.1824      2.00000
     10     -21.1695      2.00000
     11     -21.1628      2.00000
     12     -14.5918      2.00000
     13     -14.5500      2.00000
     14     -14.4190      2.00000
     15      -6.1523      2.00000
     16      -4.2669      2.00000
     17       0.2622      2.00000
     18       0.6528      2.00000
     19       1.0786      2.00000
     20       4.3394      0.00000
     21       5.6643      0.00000
     22       6.3287      0.00000
     23       7.1431      0.00000
     24       8.5403      0.00000

 k-point 957 :       0.1333    0.5000    0.5000
  band No.  band energies     occupation 
      1     -32.3530      2.00000
      2     -21.3753      2.00000
      3     -21.3273      2.00000
      4     -21.2783      2.00000
      5     -21.2769      2.00000
      6     -21.2567      2.00000
      7     -21.2277      2.00000
      8     -21.2216      2.00000
      9     -21.1819      2.00000
     10     -21.1691      2.00000
     11     -21.1611      2.00000
     12     -14.5765      2.00000
     13     -14.5501      2.00000
     14     -14.4349      2.00000
     15      -6.1612      2.00000
     16      -4.2193      2.00000
     17       0.0353      2.00000
     18       0.4832      2.00000
     19       1.3754      2.00000
     20       4.8591      0.00000
     21       5.4806      0.00000
     22       6.3799      0.00000
     23       6.9760      0.00000
     24       8.1517      0.00000

 k-point 958 :       0.2000    0.5000    0.5000
  band No.  band energies     occupation 
      1     -32.3530      2.00000
      2     -21.3779      2.00000
      3     -21.3234      2.00000
      4     -21.2772      2.00000
      5     -21.2718      2.00000
      6     -21.2614      2.00000
      7     -21.2318      2.00000
      8     -21.2221      2.00000
      9     -21.1819      2.00000
     10     -21.1687      2.00000
     11     -21.1595      2.00000
     12     -14.5587      2.00000
     13     -14.5503      2.00000
     14     -14.4533      2.00000
     15      -6.1691      2.00000
     16      -4.1746      2.00000
     17      -0.1263      2.00000
     18       0.3528      2.00000
     19       1.6182      2.00000
     20       5.1345      0.00000
     21       5.5228      0.00000
     22       6.4246      0.00000
     23       7.0339      0.00000
     24       7.6560      0.00000

 k-point 959 :       0.2667    0.5000    0.5000
  band No.  band energies     occupation 
      1     -32.3530      2.00000
      2     -21.3785      2.00000
      3     -21.3226      2.00000
      4     -21.2770      2.00000
      5     -21.2686      2.00000
      6     -21.2645      2.00000
      7     -21.2327      2.00000
      8     -21.2221      2.00000
      9     -21.1819      2.00000
     10     -21.1687      2.00000
     11     -21.1592      2.00000
     12     -14.5529      2.00000
     13     -14.5508      2.00000
     14     -14.4587      2.00000
     15      -6.1710      2.00000
     16      -4.1637      2.00000
     17      -0.1625      2.00000
     18       0.3249      2.00000
     19       1.6761      2.00000
     20       5.0958      0.00000
     21       5.6495      0.00000
     22       6.4324      0.00000
     23       7.1619      0.00000
     24       7.4268      0.00000

 k-point 960 :       0.3333    0.5000    0.5000
  band No.  band energies     occupation 
      1     -32.3530      2.00000
      2     -21.3768      2.00000
      3     -21.3251      2.00000
      4     -21.2776      2.00000
      5     -21.2746      2.00000
      6     -21.2588      2.00000
      7     -21.2300      2.00000
      8     -21.2219      2.00000
      9     -21.1819      2.00000
     10     -21.1689      2.00000
     11     -21.1602      2.00000
     12     -14.5672      2.00000
     13     -14.5502      2.00000
     14     -14.4446      2.00000
     15      -6.1657      2.00000
     16      -4.1943      2.00000
     17      -0.0580      2.00000
     18       0.4069      2.00000
     19       1.5127      2.00000
     20       5.0970      0.00000
     21       5.4141      0.00000
     22       6.4064      0.00000
     23       6.9700      0.00000
     24       7.9069      0.00000

 k-point 961 :       0.4000    0.5000    0.5000
  band No.  band energies     occupation 
      1     -32.3530      2.00000
      2     -21.3735      2.00000
      3     -21.3298      2.00000
      4     -21.2791      2.00000
      5     -21.2782      2.00000
      6     -21.2554      2.00000
      7     -21.2257      2.00000
      8     -21.2206      2.00000
      9     -21.1821      2.00000
     10     -21.1694      2.00000
     11     -21.1621      2.00000
     12     -14.5851      2.00000
     13     -14.5500      2.00000
     14     -14.4260      2.00000
     15      -6.1566      2.00000
     16      -4.2448      2.00000
     17       0.1453      2.00000
     18       0.5714      2.00000
     19       1.2242      2.00000
     20       4.5801      0.00000
     21       5.5836      0.00000
     22       6.3518      0.00000
     23       7.0414      0.00000
     24       8.3741      0.00000

 k-point 962 :       0.4667    0.5000    0.5000
  band No.  band energies     occupation 
      1     -32.3530      2.00000
      2     -21.3704      2.00000
      3     -21.3339      2.00000
      4     -21.2800      2.00000
      5     -21.2795      2.00000
      6     -21.2540      2.00000
      7     -21.2242      2.00000
      8     -21.2174      2.00000
      9     -21.1826      2.00000
     10     -21.1696      2.00000
     11     -21.1634      2.00000
     12     -14.5961      2.00000
     13     -14.5499      2.00000
     14     -14.4145      2.00000
     15      -6.1496      2.00000
     16      -4.2815      2.00000
     17       0.3697      2.00000
     18       0.6972      2.00000
     19       0.9697      2.00000
     20       4.1766     -0.00002
     21       5.7112      0.00000
     22       6.3141      0.00000
     23       7.2388      0.00000
     24       8.6295      0.00000


--------------------------------------------------------------------------------------------------------


 soft charge-density along one line, spin component           1
         0         1         2         3         4         5         6         7         8         9
 total charge-density along one line
 
 pseudopotential strength for first ion, spin component:           1
-23.866   0.000   0.000   0.002   0.000  18.951   0.000   0.000
  0.000 -23.840   0.000   0.000   0.002   0.000  18.927   0.000
  0.000   0.000 -23.830   0.000   0.000   0.000   0.000  18.917
  0.002   0.000   0.000 -23.840   0.000  -0.001   0.000   0.000
  0.000   0.002   0.000   0.000 -23.866   0.000  -0.001   0.000
 18.951   0.000   0.000  -0.001   0.000 -13.964   0.000   0.000
  0.000  18.927   0.000   0.000  -0.001   0.000 -13.943   0.000
  0.000   0.000  18.917   0.000   0.000   0.000   0.000 -13.934
 -0.001   0.000   0.000  18.927   0.000   0.001   0.000   0.000
  0.000  -0.001   0.000   0.000  18.951   0.000   0.001   0.000
  0.000   0.000   0.002   0.000   0.000   0.000   0.000  -0.004
  0.000   0.000   0.000   0.000   0.000   0.000   0.000   0.000
  0.000   0.008   0.000   0.000   0.000   0.000  -0.003   0.000
  0.000   0.000   0.009   0.000   0.000   0.000   0.000  -0.003
  0.000   0.000   0.000   0.008   0.000   0.000   0.000   0.000
  0.000  -0.002   0.000   0.000   0.000   0.000   0.002   0.000
  0.000   0.000  -0.002   0.000   0.000   0.000   0.000   0.002
  0.000   0.000   0.000  -0.002   0.000   0.000   0.000   0.000
 total augmentation occupancy for first ion, spin component:           1
  2.049   0.000   0.000  -0.015   0.000   0.053   0.000   0.000  -0.016   0.000   0.000   0.000   0.000   0.000  -0.095   0.000
  0.000   2.040   0.000   0.000  -0.015   0.000   0.042   0.000   0.000  -0.016   0.000   0.000   0.075   0.000   0.000  -0.015
  0.000   0.000   2.030   0.000   0.000   0.000   0.000   0.033   0.000   0.000  -0.011   0.023   0.000  -0.038   0.000   0.000
 -0.015   0.000   0.000   2.040   0.000  -0.016   0.000   0.000   0.042   0.000   0.000   0.000   0.000   0.000   0.075   0.000
  0.000  -0.015   0.000   0.000   2.049   0.000  -0.016   0.000   0.000   0.053   0.000   0.000  -0.095   0.000   0.000   0.037
  0.053   0.000   0.000  -0.016   0.000   0.054   0.000   0.000  -0.017   0.000   0.000   0.000   0.000   0.000  -0.123   0.000
  0.000   0.042   0.000   0.000  -0.016   0.000   0.044   0.000   0.000  -0.017   0.000   0.000   0.093   0.000   0.000  -0.036
  0.000   0.000   0.033   0.000   0.000   0.000   0.000   0.036   0.000   0.000  -0.014   0.029   0.000  -0.054   0.000   0.000
 -0.016   0.000   0.000   0.042   0.000  -0.017   0.000   0.000   0.044   0.000   0.000   0.000   0.000   0.000   0.093   0.000
  0.000  -0.016   0.000   0.000   0.053   0.000  -0.017   0.000   0.000   0.054   0.000   0.000  -0.123   0.000   0.000   0.040
  0.000   0.000  -0.011   0.000   0.000   0.000   0.000  -0.014   0.000   0.000   1.730  -0.214   0.000  -0.166   0.000   0.000
  0.000   0.000   0.023   0.000   0.000   0.000   0.000   0.029   0.000   0.000  -0.214   0.152   0.000  -0.138   0.000   0.000
  0.000   0.075   0.000   0.000  -0.095   0.000   0.093   0.000   0.000  -0.123   0.000   0.000   0.949   0.000   0.000  -0.259
  0.000   0.000  -0.038   0.000   0.000   0.000   0.000  -0.054   0.000   0.000  -0.166  -0.138   0.000   1.055   0.000   0.000
 -0.095   0.000   0.000   0.075   0.000  -0.123   0.000   0.000   0.093   0.000   0.000   0.000   0.000   0.000   0.949   0.000
  0.000  -0.015   0.000   0.000   0.037   0.000  -0.036   0.000   0.000   0.040   0.000   0.000  -0.259   0.000   0.000   0.089
  0.000   0.000   0.028   0.000   0.000   0.000   0.000   0.007   0.000   0.000   0.053   0.043   0.000  -0.233   0.000   0.000
  0.037   0.000   0.000  -0.015   0.000   0.040   0.000   0.000  -0.036   0.000   0.000   0.000   0.000   0.000  -0.259   0.000


------------------------ aborting loop because EDIFF is reached ----------------------------------------




--------------------------------------------------------------------------------------------------------



  FREE ENERGIE OF THE ION-ELECTRON SYSTEM (eV)
  ---------------------------------------------------
  free  energy   TOTEN  =       -12.416927 eV

  energy  without entropy=      -12.417313  energy(sigma->0) =      -12.417056
 
    CHARGE:  cpu time    1.39: real time    1.39
    FORLOC:  cpu time    0.00: real time    0.00
    FORNL :  cpu time    4.56: real time    4.56
    STRESS:  cpu time    5.96: real time    5.96
    FORCOR:  cpu time    0.01: real time    0.01
    FORHAR:  cpu time    0.00: real time    0.00
    MIXING:  cpu time    0.00: real time    0.00

  FORCE on cell =-STRESS in cart. coord.  units (eV):
  Direction    XX          YY          ZZ          XY          YZ          ZX
  --------------------------------------------------------------------------------------
  Alpha Z   237.97098   237.97098   237.97098
  Ewald    -906.31311  -906.31090 -1434.69319     0.00189     0.00048    -0.00080
  Hartree   740.24399   740.24504   298.07206     0.00091     0.00024    -0.00040
  E(xc)    -202.71121  -202.71093  -202.78811     0.00024     0.00000    -0.00001
  Local      41.96154    41.95473  1008.84341    -0.00590    -0.00071     0.00117
  n-local   -60.08474   -60.08234   -59.46421     0.00186    -0.00063    -0.00045
  augment  -115.38452  -115.38056  -114.15967     0.00344     0.00000     0.00001
  Kinetic   264.20431   264.20564   266.07193     0.00113    -0.00154     0.00174
  Fock        0.00000     0.00000     0.00000     0.00000     0.00000     0.00000
  -------------------------------------------------------------------------------------
  Total      -0.11055    -0.11055    -0.14680     0.00000     0.00000     0.00000
  in kB      -2.27701    -2.27701    -3.02369     0.00000     0.00000     0.00000
  external pressure =       -2.53 kB  Pullay stress =        0.00 kB


 VOLUME and BASIS-vectors are now :
 -----------------------------------------------------------------------------
  energy-cutoff  :      373.00
  volume of cell :       77.79
      direct lattice vectors                 reciprocal lattice vectors
     4.162546644  0.000000000  0.000000000     0.240237548  0.138701216  0.000000000
    -2.081273322  3.604871071  0.000000000     0.000000000  0.277402431  0.000000000
     0.000000000  0.000000000  5.183943586     0.000000000  0.000000000  0.192903334

  length of vectors
     4.162546644  4.162546586  5.183943586     0.277402428  0.277402431  0.192903334


 FORCES acting on ions
    electron-ion (+dipol)            ewald-force                    non-local-force                 convergence-correction
 -----------------------------------------------------------------------------------------------
   0.151E-03 -.823E-04 0.187E+03   0.126E-02 -.735E-03 -.199E+03   0.983E-19 -.139E-20 0.122E+02   0.173E-06 -.100E-06 -.169E-01
   -.151E-03 0.823E-04 -.187E+03   -.126E-02 0.735E-03 0.199E+03   -.115E-18 0.139E-20 -.122E+02   -.173E-06 0.100E-06 0.169E-01
   -.357E-14 0.114E-13 0.210E-13   -.122E-14 -.870E-14 -.568E-13   -.529E-22 -.394E-27 0.000E+00   -.484E-13 -.976E-14 0.586E-13
 -----------------------------------------------------------------------------------------------
   0.175E-11 -.337E-12 0.140E-10   -.258E-14 0.894E-15 0.770E-24   -.170E-19 -.226E-26 0.000E+00   -.144E-12 0.153E-12 -.638E-12
 
 
 POSITION                                       TOTAL-FORCE (eV/Angst)
 -----------------------------------------------------------------------------------
      0.00000      2.40325      2.09604         0.000000      0.000000     -0.037641
      2.08128      1.20162      3.08790         0.000000      0.000000      0.037641
      0.00000      0.00000      0.00000         0.000000      0.000000      0.000000
 -----------------------------------------------------------------------------------
    total drift:                                0.000000      0.000000      0.000000
 d Force = 0.1082708E-03[ 0.115E-03, 0.102E-03]  d Energy = 0.3310765E-03-0.223E-03
 d Force = 0.6072215E+00[ 0.606E+00, 0.608E+00]  d Ewald  = 0.4686645E-01 0.560E+00


--------------------------------------------------------------------------------------------------------


    POTLOK:  cpu time    0.01: real time    0.01


--------------------------------------------------------------------------------------------------------


 Quasi-Newton relaxation of ions (Broydens 2nd method)
  g(Force)  = 0.137E-03   g(Stress)= 0.740E-03

 retain information from N=  1 steps
 eigenvalues of (default step * inverse Hessian matrix)
  average eigenvalue of G=   0.1248
 eigenvalue spectrum of G is  0.1248


--------------------------------------------------------------------------------------------------------


  
 reached required accuracy - stopping structural energy minimisation
     LOOP+:  cpu time   90.00: real time   90.10
    4ORBIT:  cpu time    0.00: real time    0.00

 total amount of memory used by VASP on root node 186070. kBytes
========================================================================

   base      :    30000. kBytes
   nonl-proj :    90890. kBytes
   fftplans  :      274. kBytes
   grid      :      984. kBytes
   one-center:       15. kBytes
   wavefun   :    63907. kBytes
 
  
  
 General timing and accounting informations for this job:
 ========================================================
  
                  Total CPU time used (sec):      544.005
                            User time (sec):      543.234
                          System time (sec):        0.771
                         Elapsed time (sec):      545.583
  
                   Maximum memory used (kb):           0.
                   Average memory used (kb):           0.
  
                          Minor page faults:        55084
                          Major page faults:            0
                 Voluntary context switches:         2356
