  12  12   1   0
  0.1300482E+02  0.5088557E-09  0.5088557E-09  0.6532300E-09  0.5000000E-15
  1.000000000000000E-004
  CAR 
 unknown system                          
     16.75042923    -17.17283872  301      4.73642421      1.00000000
    -17.173  0.0000E+00  0.0000E+00  0.0000E+00  0.0000E+00
    -17.060  0.0000E+00  0.0000E+00  0.0000E+00  0.0000E+00
    -16.947  0.0000E+00  0.0000E+00  0.0000E+00  0.0000E+00
    -16.834  0.0000E+00  0.0000E+00  0.0000E+00  0.0000E+00
    -16.721  0.0000E+00  0.0000E+00  0.0000E+00  0.0000E+00
    -16.607  0.0000E+00  0.0000E+00  0.0000E+00  0.0000E+00
    -16.494  0.0000E+00  0.0000E+00  0.0000E+00  0.0000E+00
    -16.381  0.0000E+00  0.0000E+00  0.0000E+00  0.0000E+00
    -16.268  0.1002E-18  0.1964E-17  0.1133E-19  0.2220E-18
    -16.155  0.6668E-16  0.8511E-15  0.7552E-17  0.9646E-16
    -16.042  0.2000E-13  0.1963E-12  0.2269E-14  0.2230E-13
    -15.929  0.3299E-11  0.2499E-10  0.3753E-12  0.2849E-11
    -15.816  0.3019E-09  0.1774E-08  0.3452E-10  0.2035E-09
    -15.703  0.1550E-07  0.7101E-07  0.1787E-08  0.8234E-08
    -15.590  0.4512E-06  0.1622E-05  0.5280E-07  0.1916E-06
    -15.477  0.7549E-05  0.2143E-04  0.9064E-06  0.2615E-05
    -15.364  0.7384E-04  0.1670E-03  0.9256E-05  0.2150E-04
    -15.251  0.4333E-03  0.7919E-03  0.5825E-04  0.1110E-03
    -15.137  0.1593E-02  0.2415E-02  0.2384E-03  0.3841E-03
    -15.024  0.3950E-02  0.5152E-02  0.6851E-03  0.9667E-03
    -14.911  0.7320E-02  0.8549E-02  0.1513E-02  0.1933E-02
    -14.798  0.1129E-01  0.1218E-01  0.2789E-02  0.3311E-02
    -14.685  0.1542E-01  0.1586E-01  0.4533E-02  0.5104E-02
    -14.572  0.1871E-01  0.1905E-01  0.6648E-02  0.7259E-02
    -14.459  0.2051E-01  0.2163E-01  0.8967E-02  0.9704E-02
    -14.346  0.2333E-01  0.2640E-01  0.1161E-01  0.1269E-01
    -14.233  0.3257E-01  0.3808E-01  0.1529E-01  0.1700E-01
    -14.120  0.4943E-01  0.5673E-01  0.2088E-01  0.2341E-01
    -14.007  0.6678E-01  0.7435E-01  0.2843E-01  0.3182E-01
    -13.894  0.7496E-01  0.8175E-01  0.3690E-01  0.4106E-01
    -13.781  0.7218E-01  0.8005E-01  0.4507E-01  0.5011E-01
    -13.667  0.6707E-01  0.7702E-01  0.5265E-01  0.5882E-01
    -13.554  0.6460E-01  0.7226E-01  0.5996E-01  0.6699E-01
    -13.441  0.6114E-01  0.5812E-01  0.6687E-01  0.7357E-01
    -13.328  0.5170E-01  0.3545E-01  0.7272E-01  0.7757E-01
    -13.215  0.3564E-01  0.1551E-01  0.7675E-01  0.7933E-01
    -13.102  0.1890E-01  0.4783E-02  0.7888E-01  0.7987E-01
    -12.989  0.7426E-02  0.1011E-02  0.7972E-01  0.7998E-01
    -12.876  0.2048E-02  0.1389E-03  0.7995E-01  0.8000E-01
    -12.763  0.3700E-03  0.1169E-04  0.8000E-01  0.8000E-01
    -12.650  0.4119E-04  0.5777E-06  0.8000E-01  0.8000E-01
    -12.537  0.2707E-05  0.1627E-07  0.8000E-01  0.8000E-01
    -12.424  0.1020E-06  0.2565E-09  0.8000E-01  0.8000E-01
    -12.311  0.2164E-08  0.2236E-11  0.8000E-01  0.8000E-01
    -12.197  0.2549E-10  0.1069E-13  0.8000E-01  0.8000E-01
    -12.084  0.1653E-12  0.2773E-16  0.8000E-01  0.8000E-01
    -11.971  0.5858E-15  0.0000E+00  0.8000E-01  0.8000E-01
    -11.858  0.1122E-17  0.0000E+00  0.8000E-01  0.8000E-01
    -11.745  0.0000E+00  0.0000E+00  0.8000E-01  0.8000E-01
    -11.632  0.0000E+00  0.0000E+00  0.8000E-01  0.8000E-01
    -11.519  0.0000E+00  0.0000E+00  0.8000E-01  0.8000E-01
    -11.406  0.0000E+00  0.0000E+00  0.8000E-01  0.8000E-01
    -11.293  0.0000E+00  0.0000E+00  0.8000E-01  0.8000E-01
    -11.180  0.0000E+00  0.0000E+00  0.8000E-01  0.8000E-01
    -11.067  0.0000E+00  0.0000E+00  0.8000E-01  0.8000E-01
    -10.954  0.0000E+00  0.0000E+00  0.8000E-01  0.8000E-01
    -10.840  0.0000E+00  0.0000E+00  0.8000E-01  0.8000E-01
    -10.727  0.0000E+00  0.0000E+00  0.8000E-01  0.8000E-01
    -10.614  0.0000E+00  0.0000E+00  0.8000E-01  0.8000E-01
    -10.501  0.0000E+00  0.0000E+00  0.8000E-01  0.8000E-01
    -10.388  0.0000E+00  0.0000E+00  0.8000E-01  0.8000E-01
    -10.275  0.9758E-17  0.6472E-17  0.8000E-01  0.8000E-01
    -10.162  0.6268E-14  0.3987E-14  0.8000E-01  0.8000E-01
    -10.049  0.1941E-11  0.1292E-11  0.8000E-01  0.8000E-01
     -9.936  0.3248E-09  0.2260E-09  0.8000E-01  0.8000E-01
     -9.823  0.2949E-07  0.2144E-07  0.8000E-01  0.8000E-01
     -9.710  0.1460E-05  0.1108E-05  0.8000E-01  0.8000E-01
     -9.597  0.3959E-04  0.3138E-04  0.8000E-01  0.8000E-01
     -9.484  0.5911E-03  0.4892E-03  0.8007E-01  0.8006E-01
     -9.370  0.4882E-02  0.4221E-02  0.8062E-01  0.8054E-01
     -9.257  0.2243E-01  0.2027E-01  0.8316E-01  0.8283E-01
     -9.144  0.5799E-01  0.5473E-01  0.8972E-01  0.8902E-01
     -9.031  0.8763E-01  0.8598E-01  0.9963E-01  0.9874E-01
     -8.918  0.8832E-01  0.8861E-01  0.1096E+00  0.1088E+00
     -8.805  0.7634E-01  0.7706E-01  0.1182E+00  0.1175E+00
     -8.692  0.5929E-01  0.6135E-01  0.1250E+00  0.1244E+00
     -8.579  0.3226E-01  0.3503E-01  0.1286E+00  0.1284E+00
     -8.466  0.1035E-01  0.1190E-01  0.1298E+00  0.1297E+00
     -8.353  0.1851E-02  0.2256E-02  0.1300E+00  0.1300E+00
     -8.240  0.1817E-03  0.2346E-03  0.1300E+00  0.1300E+00
     -8.127  0.9715E-05  0.1330E-04  0.1300E+00  0.1300E+00
     -8.014  0.2820E-06  0.4091E-06  0.1300E+00  0.1300E+00
     -7.900  0.4430E-08  0.6804E-08  0.1300E+00  0.1300E+00
     -7.787  0.3753E-10  0.6100E-10  0.1300E+00  0.1300E+00
     -7.674  0.1711E-12  0.2941E-12  0.1300E+00  0.1300E+00
     -7.561  0.4197E-15  0.7610E-15  0.1300E+00  0.1300E+00
     -7.448  0.0000E+00  0.0000E+00  0.1300E+00  0.1300E+00
     -7.335  0.0000E+00  0.0000E+00  0.1300E+00  0.1300E+00
     -7.222  0.0000E+00  0.0000E+00  0.1300E+00  0.1300E+00
     -7.109  0.0000E+00  0.0000E+00  0.1300E+00  0.1300E+00
     -6.996  0.0000E+00  0.0000E+00  0.1300E+00  0.1300E+00
     -6.883  0.0000E+00  0.0000E+00  0.1300E+00  0.1300E+00
     -6.770  0.0000E+00  0.0000E+00  0.1300E+00  0.1300E+00
     -6.657  0.0000E+00  0.0000E+00  0.1300E+00  0.1300E+00
     -6.544  0.0000E+00  0.0000E+00  0.1300E+00  0.1300E+00
     -6.430  0.0000E+00  0.0000E+00  0.1300E+00  0.1300E+00
     -6.317  0.0000E+00  0.0000E+00  0.1300E+00  0.1300E+00
     -6.204  0.0000E+00  0.0000E+00  0.1300E+00  0.1300E+00
     -6.091  0.0000E+00  0.0000E+00  0.1300E+00  0.1300E+00
     -5.978  0.0000E+00  0.0000E+00  0.1300E+00  0.1300E+00
     -5.865  0.0000E+00  0.0000E+00  0.1300E+00  0.1300E+00
     -5.752  0.0000E+00  0.0000E+00  0.1300E+00  0.1300E+00
     -5.639  0.0000E+00  0.0000E+00  0.1300E+00  0.1300E+00
     -5.526  0.0000E+00  0.0000E+00  0.1300E+00  0.1300E+00
     -5.413  0.0000E+00  0.0000E+00  0.1300E+00  0.1300E+00
     -5.300  0.0000E+00  0.0000E+00  0.1300E+00  0.1300E+00
     -5.187  0.0000E+00  0.0000E+00  0.1300E+00  0.1300E+00
     -5.074  0.0000E+00  0.0000E+00  0.1300E+00  0.1300E+00
     -4.960  0.0000E+00  0.0000E+00  0.1300E+00  0.1300E+00
     -4.847  0.0000E+00  0.0000E+00  0.1300E+00  0.1300E+00
     -4.734  0.0000E+00  0.0000E+00  0.1300E+00  0.1300E+00
     -4.621  0.0000E+00  0.0000E+00  0.1300E+00  0.1300E+00
     -4.508  0.0000E+00  0.0000E+00  0.1300E+00  0.1300E+00
     -4.395  0.1956E-16  0.0000E+00  0.1300E+00  0.1300E+00
     -4.282  0.7040E-14  0.0000E+00  0.1300E+00  0.1300E+00
     -4.169  0.1368E-11  0.0000E+00  0.1300E+00  0.1300E+00
     -4.056  0.1442E-09  0.6412E-17  0.1300E+00  0.1300E+00
     -3.943  0.8342E-08  0.2596E-14  0.1300E+00  0.1300E+00
     -3.830  0.2687E-06  0.5647E-12  0.1300E+00  0.1300E+00
     -3.717  0.4921E-05  0.6655E-10  0.1300E+00  0.1300E+00
     -3.604  0.5256E-04  0.4289E-08  0.1300E+00  0.1300E+00
     -3.490  0.3385E-03  0.1532E-06  0.1300E+00  0.1300E+00
     -3.377  0.1373E-02  0.3089E-05  0.1302E+00  0.1300E+00
     -3.264  0.3730E-02  0.3604E-04  0.1306E+00  0.1300E+00
     -3.151  0.7369E-02  0.2513E-03  0.1315E+00  0.1300E+00
     -3.038  0.1140E-01  0.1096E-02  0.1327E+00  0.1302E+00
     -2.925  0.1425E-01  0.3184E-02  0.1344E+00  0.1305E+00
     -2.812  0.1453E-01  0.6697E-02  0.1360E+00  0.1313E+00
     -2.699  0.1266E-01  0.1101E-01  0.1374E+00  0.1325E+00
     -2.586  0.1058E-01  0.1466E-01  0.1386E+00  0.1342E+00
     -2.473  0.1027E-01  0.1578E-01  0.1398E+00  0.1360E+00
     -2.360  0.1265E-01  0.1372E-01  0.1412E+00  0.1375E+00
     -2.247  0.1724E-01  0.9792E-02  0.1432E+00  0.1386E+00
     -2.134  0.2310E-01  0.6363E-02  0.1458E+00  0.1393E+00
     -2.020  0.2905E-01  0.5373E-02  0.1491E+00  0.1399E+00
     -1.907  0.3487E-01  0.8017E-02  0.1530E+00  0.1409E+00
     -1.794  0.4407E-01  0.1457E-01  0.1580E+00  0.1425E+00
     -1.681  0.5776E-01  0.2336E-01  0.1645E+00  0.1451E+00
     -1.568  0.6732E-01  0.3161E-01  0.1721E+00  0.1487E+00
     -1.455  0.6540E-01  0.3835E-01  0.1795E+00  0.1531E+00
     -1.342  0.5660E-01  0.4481E-01  0.1859E+00  0.1581E+00
     -1.229  0.4937E-01  0.5104E-01  0.1915E+00  0.1639E+00
     -1.116  0.4691E-01  0.5538E-01  0.1968E+00  0.1702E+00
     -1.003  0.4703E-01  0.5726E-01  0.2021E+00  0.1766E+00
     -0.890  0.4643E-01  0.5705E-01  0.2074E+00  0.1831E+00
     -0.777  0.4334E-01  0.5399E-01  0.2123E+00  0.1892E+00
     -0.664  0.3909E-01  0.4885E-01  0.2167E+00  0.1947E+00
     -0.550  0.3730E-01  0.4666E-01  0.2209E+00  0.2000E+00
     -0.437  0.3826E-01  0.4920E-01  0.2253E+00  0.2055E+00
     -0.324  0.3961E-01  0.5047E-01  0.2297E+00  0.2113E+00
     -0.211  0.4207E-01  0.4669E-01  0.2345E+00  0.2165E+00
     -0.098  0.4664E-01  0.4188E-01  0.2398E+00  0.2213E+00
      0.015  0.5196E-01  0.3975E-01  0.2456E+00  0.2258E+00
      0.128  0.5762E-01  0.4146E-01  0.2522E+00  0.2305E+00
      0.241  0.6124E-01  0.4700E-01  0.2591E+00  0.2358E+00
      0.354  0.5885E-01  0.5456E-01  0.2657E+00  0.2419E+00
      0.467  0.5089E-01  0.6029E-01  0.2715E+00  0.2488E+00
      0.580  0.4211E-01  0.5982E-01  0.2762E+00  0.2555E+00
      0.693  0.3704E-01  0.5360E-01  0.2804E+00  0.2616E+00
      0.806  0.3700E-01  0.4744E-01  0.2846E+00  0.2669E+00
      0.920  0.4008E-01  0.4531E-01  0.2892E+00  0.2721E+00
      1.033  0.4381E-01  0.4557E-01  0.2941E+00  0.2772E+00
      1.146  0.4634E-01  0.4476E-01  0.2993E+00  0.2823E+00
      1.259  0.4631E-01  0.4367E-01  0.3046E+00  0.2872E+00
      1.372  0.4484E-01  0.4593E-01  0.3097E+00  0.2924E+00
      1.485  0.4542E-01  0.5117E-01  0.3148E+00  0.2982E+00
      1.598  0.4823E-01  0.5673E-01  0.3202E+00  0.3046E+00
      1.711  0.4915E-01  0.6024E-01  0.3258E+00  0.3114E+00
      1.824  0.4666E-01  0.5980E-01  0.3311E+00  0.3182E+00
      1.937  0.4394E-01  0.5613E-01  0.3360E+00  0.3245E+00
      2.050  0.4417E-01  0.5338E-01  0.3410E+00  0.3306E+00
      2.163  0.4711E-01  0.5496E-01  0.3464E+00  0.3368E+00
      2.277  0.4904E-01  0.5956E-01  0.3519E+00  0.3435E+00
      2.390  0.4727E-01  0.6164E-01  0.3573E+00  0.3505E+00
      2.503  0.4470E-01  0.5582E-01  0.3623E+00  0.3568E+00
      2.616  0.4500E-01  0.4324E-01  0.3674E+00  0.3617E+00
      2.729  0.4665E-01  0.3013E-01  0.3727E+00  0.3651E+00
      2.842  0.4568E-01  0.2032E-01  0.3778E+00  0.3674E+00
      2.955  0.4159E-01  0.1301E-01  0.3825E+00  0.3689E+00
      3.068  0.3689E-01  0.6819E-02  0.3867E+00  0.3696E+00
      3.181  0.3321E-01  0.2508E-02  0.3905E+00  0.3699E+00
      3.294  0.3062E-01  0.5888E-03  0.3939E+00  0.3700E+00
      3.407  0.2683E-01  0.8407E-04  0.3970E+00  0.3700E+00
      3.520  0.2041E-01  0.7114E-05  0.3993E+00  0.3700E+00
      3.633  0.1524E-01  0.3512E-06  0.4010E+00  0.3700E+00
      3.747  0.1574E-01  0.9992E-08  0.4028E+00  0.3700E+00
      3.860  0.2021E-01  0.1621E-09  0.4051E+00  0.3700E+00
      3.973  0.2263E-01  0.1483E-11  0.4076E+00  0.3700E+00
      4.086  0.2090E-01  0.7571E-14  0.4100E+00  0.3700E+00
      4.199  0.1985E-01  0.2128E-16  0.4122E+00  0.3700E+00
      4.312  0.2141E-01  0.0000E+00  0.4147E+00  0.3700E+00
      4.425  0.2092E-01  0.0000E+00  0.4170E+00  0.3700E+00
      4.538  0.1543E-01  0.0000E+00  0.4188E+00  0.3700E+00
      4.651  0.8033E-02  0.0000E+00  0.4197E+00  0.3700E+00
      4.764  0.3703E-02  0.0000E+00  0.4201E+00  0.3700E+00
      4.877  0.4423E-02  0.8015E-19  0.4206E+00  0.3700E+00
      4.990  0.9628E-02  0.4849E-16  0.4217E+00  0.3700E+00
      5.103  0.1773E-01  0.1705E-13  0.4237E+00  0.3700E+00
      5.217  0.2567E-01  0.3211E-11  0.4266E+00  0.3700E+00
      5.330  0.2933E-01  0.3277E-09  0.4299E+00  0.3700E+00
      5.443  0.2745E-01  0.1834E-07  0.4330E+00  0.3700E+00
      5.556  0.2304E-01  0.5740E-06  0.4356E+00  0.3700E+00
      5.669  0.1894E-01  0.1035E-04  0.4378E+00  0.3700E+00
      5.782  0.1589E-01  0.1121E-03  0.4395E+00  0.3700E+00
      5.895  0.1588E-01  0.7609E-03  0.4413E+00  0.3701E+00
      6.008  0.2144E-01  0.3354E-02  0.4438E+00  0.3705E+00
      6.121  0.3076E-01  0.9859E-02  0.4472E+00  0.3716E+00
      6.234  0.3929E-01  0.2018E-01  0.4517E+00  0.3739E+00
      6.347  0.4599E-01  0.3137E-01  0.4569E+00  0.3774E+00
      6.460  0.5399E-01  0.4083E-01  0.4630E+00  0.3820E+00
      6.573  0.6370E-01  0.4642E-01  0.4702E+00  0.3873E+00
      6.687  0.7046E-01  0.4676E-01  0.4782E+00  0.3926E+00
      6.800  0.7011E-01  0.4436E-01  0.4861E+00  0.3976E+00
      6.913  0.5927E-01  0.4512E-01  0.4928E+00  0.4027E+00
      7.026  0.3876E-01  0.5341E-01  0.4972E+00  0.4087E+00
      7.139  0.1803E-01  0.6724E-01  0.4992E+00  0.4163E+00
      7.252  0.5634E-02  0.8194E-01  0.4999E+00  0.4256E+00
      7.365  0.1163E-02  0.9257E-01  0.5000E+00  0.4361E+00
      7.478  0.3411E-03  0.9401E-01  0.5000E+00  0.4467E+00
      7.591  0.1135E-02  0.8364E-01  0.5002E+00  0.4562E+00
      7.704  0.4061E-02  0.6258E-01  0.5006E+00  0.4632E+00
      7.817  0.9832E-02  0.3707E-01  0.5017E+00  0.4674E+00
      7.930  0.1750E-01  0.1658E-01  0.5037E+00  0.4693E+00
      8.043  0.2552E-01  0.6093E-02  0.5066E+00  0.4700E+00
      8.157  0.3310E-01  0.3829E-02  0.5103E+00  0.4704E+00
      8.270  0.3649E-01  0.6281E-02  0.5145E+00  0.4711E+00
      8.383  0.2917E-01  0.1034E-01  0.5178E+00  0.4723E+00
      8.496  0.1486E-01  0.1327E-01  0.5194E+00  0.4738E+00
      8.609  0.4730E-02  0.1540E-01  0.5200E+00  0.4755E+00
      8.722  0.1418E-02  0.2246E-01  0.5201E+00  0.4781E+00
      8.835  0.1157E-02  0.3930E-01  0.5203E+00  0.4825E+00
      8.948  0.1549E-02  0.5478E-01  0.5204E+00  0.4887E+00
      9.061  0.1921E-02  0.5077E-01  0.5207E+00  0.4945E+00
      9.174  0.2006E-02  0.3166E-01  0.5209E+00  0.4980E+00
      9.287  0.2251E-02  0.1622E-01  0.5211E+00  0.4999E+00
      9.400  0.3236E-02  0.1190E-01  0.5215E+00  0.5012E+00
      9.513  0.4368E-02  0.1497E-01  0.5220E+00  0.5029E+00
      9.627  0.4863E-02  0.2036E-01  0.5225E+00  0.5052E+00
      9.740  0.5231E-02  0.2605E-01  0.5231E+00  0.5082E+00
      9.853  0.6155E-02  0.3251E-01  0.5238E+00  0.5118E+00
      9.966  0.7621E-02  0.3765E-01  0.5247E+00  0.5161E+00
     10.079  0.9573E-02  0.3530E-01  0.5258E+00  0.5201E+00
     10.192  0.1120E-01  0.2547E-01  0.5270E+00  0.5230E+00
     10.305  0.1096E-01  0.1682E-01  0.5283E+00  0.5249E+00
     10.418  0.8342E-02  0.1346E-01  0.5292E+00  0.5264E+00
     10.531  0.4629E-02  0.1187E-01  0.5297E+00  0.5277E+00
     10.644  0.1742E-02  0.9194E-02  0.5299E+00  0.5288E+00
     10.757  0.4156E-03  0.5949E-02  0.5300E+00  0.5294E+00
     10.870  0.5981E-04  0.3163E-02  0.5300E+00  0.5298E+00
     10.983  0.5022E-05  0.1286E-02  0.5300E+00  0.5300E+00
     11.097  0.3772E-06  0.3614E-03  0.5300E+00  0.5300E+00
     11.210  0.2381E-05  0.6478E-04  0.5300E+00  0.5300E+00
     11.323  0.2248E-04  0.1099E-04  0.5300E+00  0.5300E+00
     11.436  0.1198E-03  0.3421E-04  0.5300E+00  0.5300E+00
     11.549  0.3853E-03  0.1569E-03  0.5301E+00  0.5300E+00
     11.662  0.8794E-03  0.4427E-03  0.5302E+00  0.5301E+00
     11.775  0.1743E-02  0.9143E-03  0.5304E+00  0.5302E+00
     11.888  0.3080E-02  0.1737E-02  0.5307E+00  0.5304E+00
     12.001  0.4565E-02  0.3034E-02  0.5312E+00  0.5307E+00
     12.114  0.5907E-02  0.4459E-02  0.5319E+00  0.5312E+00
     12.227  0.6985E-02  0.5721E-02  0.5327E+00  0.5319E+00
     12.340  0.8065E-02  0.6633E-02  0.5336E+00  0.5326E+00
     12.453  0.9897E-02  0.7518E-02  0.5347E+00  0.5335E+00
     12.567  0.1201E-01  0.9612E-02  0.5361E+00  0.5346E+00
     12.680  0.1280E-01  0.1245E-01  0.5375E+00  0.5360E+00
     12.793  0.1164E-01  0.1351E-01  0.5388E+00  0.5375E+00
     12.906  0.1011E-01  0.1187E-01  0.5400E+00  0.5388E+00
     13.019  0.9497E-02  0.9717E-02  0.5410E+00  0.5399E+00
     13.132  0.9489E-02  0.9025E-02  0.5421E+00  0.5410E+00
     13.245  0.1008E-01  0.9356E-02  0.5433E+00  0.5420E+00
     13.358  0.1097E-01  0.1003E-01  0.5445E+00  0.5431E+00
     13.471  0.1147E-01  0.1086E-01  0.5458E+00  0.5444E+00
     13.584  0.1193E-01  0.1163E-01  0.5471E+00  0.5457E+00
     13.697  0.1300E-01  0.1227E-01  0.5486E+00  0.5471E+00
     13.810  0.1451E-01  0.1301E-01  0.5503E+00  0.5485E+00
     13.923  0.1596E-01  0.1412E-01  0.5521E+00  0.5501E+00
     14.037  0.1719E-01  0.1527E-01  0.5540E+00  0.5519E+00
     14.150  0.1731E-01  0.1607E-01  0.5560E+00  0.5537E+00
     14.263  0.1487E-01  0.1629E-01  0.5576E+00  0.5555E+00
     14.376  0.1046E-01  0.1479E-01  0.5588E+00  0.5572E+00
     14.489  0.6123E-02  0.1127E-01  0.5595E+00  0.5585E+00
     14.602  0.2929E-02  0.7176E-02  0.5599E+00  0.5593E+00
     14.715  0.1038E-02  0.3833E-02  0.5600E+00  0.5597E+00
     14.828  0.2431E-03  0.1700E-02  0.5600E+00  0.5599E+00
     14.941  0.3480E-04  0.5967E-03  0.5600E+00  0.5600E+00
     15.054  0.2911E-05  0.1506E-03  0.5600E+00  0.5600E+00
     15.167  0.1387E-06  0.2453E-04  0.5600E+00  0.5600E+00
     15.280  0.3701E-08  0.2376E-05  0.5600E+00  0.5600E+00
     15.393  0.5454E-10  0.1303E-06  0.5600E+00  0.5600E+00
     15.507  0.4396E-12  0.3940E-08  0.5600E+00  0.5600E+00
     15.620  0.1922E-14  0.6471E-10  0.5600E+00  0.5600E+00
     15.733  0.4248E-17  0.5725E-12  0.5600E+00  0.5600E+00
     15.846  0.0000E+00  0.2714E-14  0.5600E+00  0.5600E+00
     15.959  0.0000E+00  0.6893E-17  0.5600E+00  0.5600E+00
     16.072  0.0000E+00  0.0000E+00  0.5600E+00  0.5600E+00
     16.185  0.0000E+00  0.0000E+00  0.5600E+00  0.5600E+00
     16.298  0.0000E+00  0.0000E+00  0.5600E+00  0.5600E+00
     16.411  0.0000E+00  0.0000E+00  0.5600E+00  0.5600E+00
     16.524  0.0000E+00  0.0000E+00  0.5600E+00  0.5600E+00
     16.637  0.0000E+00  0.0000E+00  0.5600E+00  0.5600E+00
     16.750  0.0000E+00  0.0000E+00  0.5600E+00  0.5600E+00
     16.75042923    -17.17283872  301      4.73642421      1.00000000
    -17.173  0.0000E+00  0.0000E+00  0.0000E+00  0.0000E+00  0.0000E+00  0.0000E+00  0.0000E+00  0.0000E+00  0.0000E+00  0.0000E+00  0.0000E+00  0.0000E+00  0.0000E+00  0.0000E+00  0.0000E+00  0.0000E+00  0.0000E+00  0.0000E+00
    -17.060  0.0000E+00  0.0000E+00  0.0000E+00  0.0000E+00  0.0000E+00  0.0000E+00  0.0000E+00  0.0000E+00  0.0000E+00  0.0000E+00  0.0000E+00  0.0000E+00  0.0000E+00  0.0000E+00  0.0000E+00  0.0000E+00  0.0000E+00  0.0000E+00
    -16.947  0.0000E+00  0.0000E+00  0.0000E+00  0.0000E+00  0.0000E+00  0.0000E+00  0.0000E+00  0.0000E+00  0.0000E+00  0.0000E+00  0.0000E+00  0.0000E+00  0.0000E+00  0.0000E+00  0.0000E+00  0.0000E+00  0.0000E+00  0.0000E+00
    -16.834  0.0000E+00  0.0000E+00  0.0000E+00  0.0000E+00  0.0000E+00  0.0000E+00  0.0000E+00  0.0000E+00  0.0000E+00  0.0000E+00  0.0000E+00  0.0000E+00  0.0000E+00  0.0000E+00  0.0000E+00  0.0000E+00  0.0000E+00  0.0000E+00
    -16.721  0.0000E+00  0.0000E+00  0.0000E+00  0.0000E+00  0.0000E+00  0.0000E+00  0.0000E+00  0.0000E+00  0.0000E+00  0.0000E+00  0.0000E+00  0.0000E+00  0.0000E+00  0.0000E+00  0.0000E+00  0.0000E+00  0.0000E+00  0.0000E+00
    -16.607  0.0000E+00  0.0000E+00  0.0000E+00  0.0000E+00  0.0000E+00  0.0000E+00  0.0000E+00  0.0000E+00  0.0000E+00  0.0000E+00  0.0000E+00  0.0000E+00  0.0000E+00  0.0000E+00  0.0000E+00  0.0000E+00  0.0000E+00  0.0000E+00
    -16.494  0.0000E+00  0.0000E+00  0.0000E+00  0.0000E+00  0.0000E+00  0.0000E+00  0.0000E+00  0.0000E+00  0.0000E+00  0.0000E+00  0.0000E+00  0.0000E+00  0.0000E+00  0.0000E+00  0.0000E+00  0.0000E+00  0.0000E+00  0.0000E+00
    -16.381  0.0000E+00  0.0000E+00  0.0000E+00  0.0000E+00  0.0000E+00  0.0000E+00  0.0000E+00  0.0000E+00  0.0000E+00  0.0000E+00  0.0000E+00  0.0000E+00  0.0000E+00  0.0000E+00  0.0000E+00  0.0000E+00  0.0000E+00  0.0000E+00
    -16.268  0.4232E-18  0.7662E-17  0.4946E-36  0.4718E-20  0.2858E-29  0.4136E-20  0.8255E-32  0.6966E-20  0.4235E-35  0.3923E-23  0.1819E-33  0.4674E-23  0.6501E-20  0.4535E-19  0.2069E-21  0.2552E-20  0.2225E-21  0.1177E-20
    -16.155  0.2807E-15  0.3314E-14  0.2459E-18  0.3353E-17  0.3060E-18  0.4214E-17  0.2970E-18  0.4736E-17  0.2916E-21  0.2797E-20  0.8226E-21  0.1241E-19  0.4403E-17  0.1970E-16  0.1364E-18  0.1103E-17  0.1750E-18  0.5541E-18
    -16.042  0.8408E-13  0.7633E-12  0.9734E-16  0.1025E-14  0.1303E-15  0.1396E-14  0.1212E-15  0.1499E-14  0.1155E-18  0.8560E-18  0.4045E-18  0.4974E-17  0.1328E-14  0.4572E-14  0.4078E-16  0.2535E-15  0.5550E-16  0.1364E-15
    -15.929  0.1385E-10  0.9695E-10  0.2083E-13  0.1691E-12  0.3100E-13  0.2517E-12  0.2670E-13  0.2558E-12  0.2474E-16  0.1415E-15  0.1166E-15  0.1088E-14  0.2204E-12  0.5856E-12  0.6698E-14  0.3213E-13  0.9764E-14  0.1885E-13
    -15.816  0.1264E-08  0.6864E-08  0.2421E-11  0.1522E-10  0.4032E-11  0.2489E-10  0.3190E-11  0.2375E-10  0.2882E-14  0.1277E-13  0.1835E-13  0.1302E-12  0.2031E-10  0.4183E-10  0.6100E-12  0.2270E-11  0.9606E-12  0.1480E-11
    -15.703  0.6471E-07  0.2738E-06  0.1544E-09  0.7560E-09  0.2886E-09  0.1360E-08  0.2085E-09  0.1212E-08  0.1851E-12  0.6390E-12  0.1579E-11  0.8541E-11  0.1049E-08  0.1684E-08  0.3114E-10  0.9036E-10  0.5333E-10  0.6697E-10
    -15.590  0.1878E-05  0.6228E-05  0.5494E-08  0.2110E-07  0.1146E-07  0.4142E-07  0.7556E-08  0.3451E-07  0.6702E-11  0.1821E-10  0.7477E-10  0.3102E-09  0.3074E-07  0.3864E-07  0.9010E-09  0.2052E-08  0.1694E-08  0.1783E-08
    -15.477  0.3129E-04  0.8191E-04  0.1115E-06  0.3394E-06  0.2552E-06  0.7125E-06  0.1550E-06  0.5614E-06  0.1418E-09  0.3082E-09  0.1977E-08  0.6363E-08  0.5181E-06  0.5139E-06  0.1498E-07  0.2697E-07  0.3157E-07  0.2891E-07
    -15.364  0.3046E-03  0.6347E-03  0.1332E-05  0.3265E-05  0.3238E-05  0.7074E-05  0.1854E-05  0.5410E-05  0.1844E-08  0.3286E-08  0.3002E-07  0.7639E-07  0.5126E-05  0.4062E-05  0.1455E-06  0.2089E-06  0.3604E-06  0.3020E-06
    -15.251  0.1777E-02  0.2990E-02  0.9774E-05  0.1971E-04  0.2419E-04  0.4225E-04  0.1352E-04  0.3253E-04  0.1563E-07  0.2342E-07  0.2742E-06  0.5683E-06  0.3078E-04  0.1992E-04  0.8454E-06  0.9826E-06  0.2687E-05  0.2173E-05
    -15.137  0.6491E-02  0.9038E-02  0.4644E-04  0.7917E-04  0.1128E-03  0.1632E-03  0.6348E-04  0.1300E-03  0.9047E-07  0.1164E-06  0.1613E-05  0.2824E-05  0.1185E-03  0.6498E-04  0.3066E-05  0.2962E-05  0.1412E-04  0.1137E-04
    -15.024  0.1596E-01  0.1908E-01  0.1517E-03  0.2256E-03  0.3605E-03  0.4481E-03  0.2036E-03  0.3671E-03  0.3736E-06  0.4218E-06  0.6630E-05  0.1015E-04  0.3192E-03  0.1565E-03  0.7446E-05  0.6233E-05  0.5653E-04  0.4512E-04
    -14.911  0.2929E-01  0.3127E-01  0.3640E-03  0.4890E-03  0.8734E-03  0.9641E-03  0.4734E-03  0.7800E-03  0.1169E-05  0.1200E-05  0.2068E-04  0.2875E-04  0.6821E-03  0.3191E-03  0.1338E-04  0.1013E-04  0.1853E-03  0.1430E-03
    -14.798  0.4468E-01  0.4370E-01  0.6832E-03  0.8527E-03  0.1769E-02  0.1823E-02  0.8439E-03  0.1324E-02  0.2906E-05  0.2804E-05  0.5397E-04  0.7221E-04  0.1296E-02  0.6140E-03  0.1967E-04  0.1385E-04  0.5059E-03  0.3751E-03
    -14.685  0.5965E-01  0.5463E-01  0.1043E-02  0.1248E-02  0.3346E-02  0.3418E-02  0.1197E-02  0.1854E-02  0.5625E-05  0.5210E-05  0.1383E-03  0.1855E-03  0.2179E-02  0.1071E-02  0.2508E-04  0.1683E-04  0.1075E-02  0.7916E-03
    -14.572  0.6815E-01  0.5995E-01  0.1421E-02  0.1757E-02  0.6228E-02  0.6243E-02  0.1379E-02  0.2235E-02  0.8138E-05  0.7489E-05  0.4196E-03  0.5219E-03  0.2934E-02  0.1513E-02  0.2815E-04  0.1895E-04  0.1662E-02  0.1300E-02
    -14.459  0.6367E-01  0.5505E-01  0.2421E-02  0.3178E-02  0.1072E-01  0.1017E-01  0.1450E-02  0.2796E-02  0.8851E-05  0.8776E-05  0.1598E-02  0.1652E-02  0.2980E-02  0.1696E-02  0.2820E-04  0.2062E-04  0.1926E-02  0.1809E-02
    -14.346  0.4836E-01  0.4241E-01  0.6030E-02  0.6990E-02  0.1660E-01  0.1494E-01  0.1852E-02  0.4452E-02  0.7858E-05  0.1005E-04  0.6290E-02  0.5560E-02  0.2474E-02  0.1814E-02  0.2679E-04  0.2370E-04  0.2102E-02  0.2695E-02
    -14.233  0.3292E-01  0.3139E-01  0.1409E-01  0.1348E-01  0.2409E-01  0.2120E-01  0.3080E-02  0.7691E-02  0.7405E-05  0.1372E-04  0.1922E-01  0.1583E-01  0.2244E-02  0.2434E-02  0.2753E-04  0.3057E-04  0.2883E-02  0.4622E-02
    -14.120  0.2474E-01  0.2642E-01  0.2421E-01  0.2059E-01  0.3317E-01  0.2999E-01  0.5282E-02  0.1158E-01  0.1076E-04  0.2020E-04  0.3963E-01  0.3222E-01  0.2766E-02  0.3890E-02  0.3237E-04  0.4090E-04  0.4551E-02  0.7937E-02
    -14.007  0.2095E-01  0.2321E-01  0.3012E-01  0.2507E-01  0.4295E-01  0.4073E-01  0.8341E-02  0.1500E-01  0.2009E-04  0.2671E-04  0.5480E-01  0.4547E-01  0.3990E-02  0.6394E-02  0.4013E-04  0.5363E-04  0.7240E-02  0.1338E-01
    -13.894  0.1610E-01  0.1776E-01  0.2840E-01  0.2436E-01  0.4864E-01  0.4705E-01  0.1181E-01  0.1884E-01  0.3399E-04  0.3262E-04  0.5522E-01  0.4760E-01  0.6198E-02  0.1066E-01  0.5040E-04  0.7149E-04  0.1222E-01  0.2302E-01
    -13.781  0.1052E-01  0.1197E-01  0.2364E-01  0.2151E-01  0.4174E-01  0.4075E-01  0.1566E-01  0.2486E-01  0.5120E-04  0.4022E-04  0.4781E-01  0.4279E-01  0.1073E-01  0.1633E-01  0.6562E-04  0.9338E-04  0.2259E-01  0.3630E-01
    -13.667  0.7586E-02  0.9106E-02  0.2181E-01  0.2267E-01  0.2471E-01  0.2472E-01  0.2115E-01  0.3296E-01  0.7254E-04  0.4620E-04  0.3999E-01  0.3777E-01  0.1745E-01  0.1947E-01  0.8397E-04  0.1038E-03  0.3802E-01  0.4480E-01
    -13.554  0.8185E-02  0.8794E-02  0.2109E-01  0.2459E-01  0.1031E-01  0.1044E-01  0.2947E-01  0.3973E-01  0.8822E-04  0.4410E-04  0.2953E-01  0.3077E-01  0.2142E-01  0.1710E-01  0.8995E-04  0.9040E-04  0.4835E-01  0.4140E-01
    -13.441  0.1038E-01  0.7846E-02  0.1734E-01  0.1933E-01  0.3531E-02  0.3275E-02  0.3935E-01  0.3822E-01  0.8609E-04  0.3394E-04  0.1762E-01  0.1970E-01  0.1927E-01  0.1139E-01  0.7497E-04  0.6110E-04  0.4626E-01  0.2932E-01
    -13.328  0.1096E-01  0.4914E-02  0.1070E-01  0.9474E-02  0.1249E-02  0.9212E-03  0.4456E-01  0.2682E-01  0.7019E-04  0.2025E-04  0.8824E-02  0.8900E-02  0.1366E-01  0.5763E-02  0.5179E-04  0.3119E-04  0.3571E-01  0.1559E-01
    -13.215  0.8150E-02  0.1975E-02  0.4513E-02  0.2754E-02  0.5150E-03  0.2724E-03  0.3884E-01  0.1342E-01  0.4832E-04  0.8673E-05  0.3619E-02  0.2650E-02  0.7721E-02  0.2089E-02  0.3053E-04  0.1132E-04  0.2182E-01  0.5830E-02
    -13.102  0.4005E-02  0.5036E-03  0.1214E-02  0.4654E-03  0.2211E-03  0.7313E-04  0.2472E-01  0.4712E-02  0.2582E-04  0.2505E-05  0.1063E-02  0.4931E-03  0.3221E-02  0.5146E-03  0.1396E-04  0.2797E-05  0.9650E-02  0.1463E-02
    -12.989  0.1280E-02  0.8206E-04  0.2020E-03  0.4538E-04  0.7970E-04  0.1422E-04  0.1102E-01  0.1106E-02  0.9726E-05  0.4697E-06  0.2032E-03  0.5530E-04  0.9357E-03  0.8400E-04  0.4489E-05  0.4607E-06  0.2927E-02  0.2416E-03
    -12.876  0.2661E-03  0.8526E-05  0.2101E-04  0.2571E-05  0.2051E-04  0.1783E-05  0.3273E-02  0.1630E-03  0.2418E-05  0.5543E-07  0.2472E-04  0.3674E-05  0.1857E-03  0.8914E-05  0.9673E-06  0.4950E-07  0.5987E-03  0.2584E-04
    -12.763  0.3569E-04  0.5542E-06  0.1422E-05  0.8703E-07  0.3432E-05  0.1367E-06  0.6145E-03  0.1434E-04  0.3792E-06  0.3989E-08  0.1952E-05  0.1442E-06  0.2473E-04  0.5969E-06  0.1357E-06  0.3351E-08  0.8120E-04  0.1738E-05
    -12.650  0.3022E-05  0.2186E-07  0.6622E-07  0.1856E-08  0.3532E-06  0.6197E-08  0.6979E-04  0.7284E-06  0.3626E-07  0.1699E-09  0.1021E-06  0.3375E-08  0.2130E-05  0.2429E-07  0.1200E-07  0.1374E-09  0.7057E-05  0.7093E-07
    -12.537  0.1566E-06  0.5076E-09  0.2173E-08  0.2633E-10  0.2157E-07  0.1619E-09  0.4637E-05  0.2089E-07  0.2055E-08  0.4170E-11  0.3513E-08  0.4765E-10  0.1134E-06  0.5806E-09  0.6450E-09  0.3298E-11  0.3770E-06  0.1697E-08
    -12.424  0.4817E-08  0.6762E-11  0.4844E-10  0.2507E-12  0.7625E-09  0.2394E-11  0.1761E-06  0.3334E-09  0.6741E-10  0.5782E-13  0.7700E-10  0.4091E-12  0.3584E-08  0.7931E-11  0.2043E-10  0.4519E-13  0.1193E-07  0.2319E-10
    -12.311  0.8568E-10  0.5067E-13  0.6845E-12  0.1520E-14  0.1530E-10  0.1976E-13  0.3754E-08  0.2934E-11  0.1255E-11  0.4458E-15  0.1032E-11  0.2124E-14  0.6531E-10  0.6072E-13  0.3718E-12  0.3469E-15  0.2174E-09  0.1776E-12
    -12.197  0.8629E-12  0.2104E-15  0.5760E-14  0.5340E-17  0.1720E-12  0.9006E-16  0.4441E-10  0.1413E-13  0.1306E-13  0.1888E-17  0.8167E-14  0.6194E-17  0.6711E-12  0.2568E-15  0.3812E-14  0.1472E-17  0.2233E-11  0.7510E-15
    -12.084  0.4842E-14  0.4540E-18  0.2763E-16  0.9702E-20  0.1070E-14  0.2186E-18  0.2890E-12  0.3697E-16  0.7495E-16  0.4309E-20  0.3710E-16  0.7195E-20  0.3828E-14  0.5701E-18  0.2171E-16  0.3349E-20  0.1274E-13  0.1669E-17
    -11.971  0.1498E-16  0.0000E+00  0.7289E-19  0.0000E+00  0.3665E-17  0.0000E+00  0.1027E-14  0.0000E+00  0.2347E-18  0.0000E+00  0.9270E-19  0.0000E+00  0.1199E-16  0.0000E+00  0.6795E-19  0.0000E+00  0.3992E-16  0.0000E+00
    -11.858  0.1875E-19  0.0000E+00  0.2765E-23  0.0000E+00  0.5854E-20  0.0000E+00  0.1981E-17  0.0000E+00  0.3869E-21  0.0000E+00  0.2051E-23  0.0000E+00  0.1603E-19  0.0000E+00  0.9915E-22  0.0000E+00  0.5392E-19  0.0000E+00
    -11.745  0.0000E+00  0.0000E+00  0.0000E+00  0.0000E+00  0.0000E+00  0.0000E+00  0.0000E+00  0.0000E+00  0.0000E+00  0.0000E+00  0.0000E+00  0.0000E+00  0.0000E+00  0.0000E+00  0.0000E+00  0.0000E+00  0.0000E+00  0.0000E+00
    -11.632  0.0000E+00  0.0000E+00  0.0000E+00  0.0000E+00  0.0000E+00  0.0000E+00  0.0000E+00  0.0000E+00  0.0000E+00  0.0000E+00  0.0000E+00  0.0000E+00  0.0000E+00  0.0000E+00  0.0000E+00  0.0000E+00  0.0000E+00  0.0000E+00
    -11.519  0.0000E+00  0.0000E+00  0.0000E+00  0.0000E+00  0.0000E+00  0.0000E+00  0.0000E+00  0.0000E+00  0.0000E+00  0.0000E+00  0.0000E+00  0.0000E+00  0.0000E+00  0.0000E+00  0.0000E+00  0.0000E+00  0.0000E+00  0.0000E+00