 running on    8 total cores
 distrk:  each k-point on    8 cores,    1 groups
 distr:  one band on    4 cores,    2 groups
 using from now: INCAR     
 vasp.5.3.2 13Sep12 (build Mar 19 2013 12:21:59) complex                        
  
 POSCAR found type information on POSCAR  Cr In O 
 POSCAR found :  3 types and      12 ions
 LDA part: xc-table for Pade appr. of Perdew
 POSCAR, INCAR and KPOINTS ok, starting setup
 WARNING: small aliasing (wrap around) errors must be expected
 FFT: planning ...
 WAVECAR not read
 charge-density read from file: unknown                                 
 magnetization density read from file 1
 WARNING: random wavefunctions but no delay for mixing, default for NELMDL
 entering main loop
       N       E                     dE             d eps       ncg     rms          rms(c)
DAV:   1     0.772353234528E+03    0.77235E+03   -0.24815E+04 16184   0.111E+03
DAV:   2     0.672370448494E+02   -0.70512E+03   -0.64493E+03 17648   0.354E+02
DAV:   3    -0.720144195233E+02   -0.13925E+03   -0.12826E+03 18952   0.171E+02
DAV:   4    -0.810802337286E+02   -0.90658E+01   -0.89648E+01 19104   0.498E+01
DAV:   5    -0.814430209859E+02   -0.36279E+00   -0.36251E+00 21696   0.905E+00    0.255E+00
RMM:   6    -0.822744622631E+02   -0.83144E+00   -0.46756E-01 17865   0.429E+00    0.344E+00
RMM:   7    -0.823492914019E+02   -0.74829E-01   -0.12097E-01 18560   0.234E+00    0.137E+00
RMM:   8    -0.823660023102E+02   -0.16711E-01   -0.38614E-02 18914   0.112E+00    0.107E+00
RMM:   9    -0.823708540066E+02   -0.48517E-02   -0.23964E-02 18528   0.880E-01    0.436E-01
RMM:  10    -0.823726409629E+02   -0.17870E-02   -0.67682E-03 19312   0.465E-01    0.155E-01
RMM:  11    -0.823735827714E+02   -0.94181E-03   -0.14419E-03 16067   0.222E-01    0.102E-01
RMM:  12    -0.823746322370E+02   -0.10495E-02   -0.55754E-04 13337   0.148E-01    0.170E-01
RMM:  13    -0.823756842431E+02   -0.10520E-02   -0.67014E-04 14206   0.158E-01    0.227E-01
RMM:  14    -0.823770779211E+02   -0.13937E-02   -0.75478E-04 14244   0.169E-01    0.263E-01
RMM:  15    -0.823789384932E+02   -0.18606E-02   -0.97336E-04 14667   0.184E-01    0.292E-01
RMM:  16    -0.824068892548E+02   -0.27951E-01   -0.74543E-04 12400   0.150E-01    0.356E-01
RMM:  17    -0.824381100379E+02   -0.31221E-01   -0.64159E-02 15592   0.269E-01    0.345E-01
RMM:  18    -0.824549278041E+02   -0.16818E-01   -0.11586E+00 12964   0.447E-01    0.480E-01
RMM:  19    -0.825784858444E+02   -0.12356E+00   -0.11091E+00 13238   0.504E-01    0.742E-01
RMM:  20    -0.826590307829E+02   -0.80545E-01   -0.43731E+00 13996   0.137E+00    0.135E+00
RMM:  21    -0.829488923984E+02   -0.28986E+00   -0.90994E+00 15228   0.271E+00    0.223E+00
RMM:  22    -0.831686840689E+02   -0.21979E+00   -0.14371E+01 16012   0.440E+00    0.299E+00
RMM:  23    -0.829957444017E+02    0.17294E+00   -0.18932E+01 15963   0.498E+00    0.295E+00
RMM:  24    -0.831539316409E+02   -0.15819E+00   -0.15990E+01 14452   0.415E+00    0.325E+00
RMM:  25    -0.828559660889E+02    0.29797E+00   -0.21698E+01 14979   0.516E+00    0.272E+00
RMM:  26    -0.831837315434E+02   -0.32777E+00   -0.13410E+01 12913   0.358E+00    0.323E+00
RMM:  27    -0.829117980489E+02    0.27193E+00   -0.21527E+01 15449   0.530E+00    0.274E+00
RMM:  28    -0.829978892113E+02   -0.86091E-01   -0.14291E+01 14608   0.384E+00    0.301E+00
RMM:  29    -0.827941091784E+02    0.20378E+00   -0.18649E+01 12795   0.438E+00    0.248E+00
RMM:  30    -0.828737638611E+02   -0.79655E-01   -0.13170E+01 14036   0.346E+00    0.267E+00
RMM:  31    -0.828714711098E+02    0.22928E-02   -0.15761E+01 12975   0.387E+00    0.252E+00
RMM:  32    -0.830328402901E+02   -0.16137E+00   -0.14723E+01 11463   0.361E+00    0.306E+00
RMM:  33    -0.829773179097E+02    0.55522E-01   -0.16635E+01 14004   0.427E+00    0.309E+00
RMM:  34    -0.830412389113E+02   -0.63921E-01   -0.16651E+01 13857   0.423E+00    0.305E+00
RMM:  35    -0.829558583930E+02    0.85381E-01   -0.17464E+01 13486   0.440E+00    0.309E+00
RMM:  36    -0.828945195701E+02    0.61339E-01   -0.17360E+01 12958   0.431E+00    0.280E+00
RMM:  37    -0.828729373708E+02    0.21582E-01   -0.16351E+01 13638   0.406E+00    0.264E+00
RMM:  38    -0.829688038274E+02   -0.95866E-01   -0.13104E+01 11466   0.353E+00    0.301E+00
RMM:  39    -0.829628984685E+02    0.59054E-02   -0.17070E+01 12253   0.409E+00    0.291E+00
RMM:  40    -0.829802398407E+02   -0.17341E-01   -0.15283E+01 13040   0.396E+00    0.313E+00
RMM:  41    -0.828836982399E+02    0.96542E-01   -0.17693E+01 13618   0.439E+00    0.289E+00
RMM:  42    -0.829402938135E+02   -0.56596E-01   -0.15459E+01 10930   0.393E+00    0.305E+00
RMM:  43    -0.828121353499E+02    0.12816E+00   -0.17289E+01 12525   0.417E+00    0.265E+00
RMM:  44    -0.828464698616E+02   -0.34335E-01   -0.13497E+01 14443   0.361E+00    0.284E+00
RMM:  45    -0.829165880707E+02   -0.70118E-01   -0.15902E+01 12998   0.393E+00    0.266E+00
RMM:  46    -0.829596296288E+02   -0.43042E-01   -0.13090E+01 12880   0.354E+00    0.325E+00
RMM:  47    -0.828532326279E+02    0.10640E+00   -0.17342E+01 13632   0.440E+00    0.302E+00
RMM:  48    -0.828075062285E+02    0.45726E-01   -0.16940E+01 13563   0.413E+00    0.303E+00
RMM:  49    -0.826967020706E+02    0.11080E+00   -0.15008E+01 13797   0.391E+00    0.261E+00
RMM:  50    -0.828605365981E+02   -0.16383E+00   -0.12040E+01 13410   0.329E+00    0.265E+00
RMM:  51    -0.827871774641E+02    0.73359E-01   -0.14485E+01 17947   0.473E+00    0.301E+00
RMM:  52    -0.828851780358E+02   -0.98001E-01   -0.14366E+01 18107   0.394E+00    0.327E+00
RMM:  53    -0.829656442443E+02   -0.80466E-01   -0.13927E+01 16144   0.382E+00    0.337E+00
RMM:  54    -0.829635143230E+02    0.21299E-02   -0.16598E+01 15188   0.444E+00    0.383E+00
RMM:  55    -0.828284679931E+02    0.13505E+00   -0.19749E+01 15205   0.503E+00    0.358E+00
RMM:  56    -0.828224759954E+02    0.59920E-02   -0.16004E+01 17219   0.441E+00    0.347E+00
RMM:  57    -0.828265970325E+02   -0.41210E-02   -0.14881E+01 14616   0.392E+00    0.319E+00
RMM:  58    -0.829039652691E+02   -0.77368E-01   -0.15691E+01 15098   0.398E+00    0.318E+00
RMM:  59    -0.828351459160E+02    0.68819E-01   -0.16281E+01 13810   0.418E+00    0.316E+00
RMM:  60    -0.829058429755E+02   -0.70697E-01   -0.14522E+01 12748   0.383E+00
   1 F= -.82905843E+02 E0= -.82849745E+02  d E =-.829058E+02  mag=     5.0072
 curvature:   0.00 expect dE= 0.000E+00 dE for cont linesearch  0.000E+00
 trial: gam= 0.00000 g(F)=  0.128E+00 g(S)=  0.768E+01 ort = 0.000E+00 (trialstep = 0.100E+01)
 search vector abs. value=  0.781E+01
 bond charge predicted
       N       E                     dE             d eps       ncg     rms          rms(c)
DAV:   1    -0.122435557601E+03   -0.39600E+02   -0.11459E+03 20400   0.229E+02    0.483E+01
RMM:   2    -0.861601130775E+02    0.36275E+02   -0.14336E+02 19808   0.709E+01    0.184E+01
RMM:   3    -0.807454461779E+02    0.54147E+01   -0.28701E+01 16634   0.356E+01    0.129E+01
RMM:   4    -0.791180755779E+02    0.16274E+01   -0.10975E+01 19666   0.186E+01    0.651E+00
RMM:   5    -0.786156492940E+02    0.50243E+00   -0.12137E+00 19651   0.626E+00    0.262E+00
RMM:   6    -0.785175006698E+02    0.98149E-01   -0.36794E-01 19941   0.342E+00    0.115E+00
RMM:   7    -0.785592117840E+02   -0.41711E-01   -0.21709E-01 19989   0.243E+00    0.827E-01
RMM:   8    -0.785920893354E+02   -0.32878E-01   -0.13159E+00 19800   0.150E+00    0.471E-01
RMM:   9    -0.787657212663E+02   -0.17363E+00   -0.41060E+00 19871   0.179E+00    0.817E-01
RMM:  10    -0.787832019710E+02   -0.17481E-01   -0.10476E+01 16921   0.332E+00    0.886E-01
RMM:  11    -0.788818368251E+02   -0.98635E-01   -0.95542E+00 16167   0.265E+00    0.195E+00
RMM:  12    -0.787800101442E+02    0.10183E+00   -0.15197E+01 16264   0.387E+00    0.113E+00
RMM:  13    -0.788731157547E+02   -0.93106E-01   -0.84742E+00 15637   0.235E+00    0.258E+00
RMM:  14    -0.787666005327E+02    0.10652E+00   -0.14352E+01 18139   0.362E+00    0.109E+00
RMM:  15    -0.790222521257E+02   -0.25565E+00   -0.85088E+00 17358   0.247E+00    0.238E+00
RMM:  16    -0.788700871285E+02    0.15216E+00   -0.15576E+01 16702   0.433E+00    0.181E+00
RMM:  17    -0.789552902569E+02   -0.85203E-01   -0.11163E+01 16817   0.297E+00    0.276E+00
RMM:  18    -0.787798158679E+02    0.17547E+00   -0.18428E+01 15748   0.437E+00    0.150E+00
RMM:  19    -0.789954520523E+02   -0.21564E+00   -0.95908E+00 15472   0.286E+00    0.279E+00
RMM:  20    -0.787524614294E+02    0.24299E+00   -0.17908E+01 14614   0.426E+00    0.183E+00
RMM:  21    -0.790231558418E+02   -0.27069E+00   -0.11401E+01 14372   0.300E+00    0.289E+00
RMM:  22    -0.788209575544E+02    0.20220E+00   -0.15353E+01 14514   0.395E+00    0.187E+00
RMM:  23    -0.790481821152E+02   -0.22722E+00   -0.10825E+01 14580   0.295E+00    0.356E+00
RMM:  24    -0.788735497784E+02    0.17463E+00   -0.19567E+01 15345   0.470E+00    0.170E+00
RMM:  25    -0.790082713029E+02   -0.13472E+00   -0.10197E+01 13556   0.279E+00    0.277E+00
RMM:  26    -0.788688781806E+02    0.13939E+00   -0.16113E+01 15113   0.403E+00    0.181E+00
RMM:  27    -0.790716432801E+02   -0.20277E+00   -0.12182E+01 13116   0.308E+00    0.334E+00
RMM:  28    -0.789473944608E+02    0.12425E+00   -0.16852E+01 15253   0.431E+00    0.274E+00
RMM:  29    -0.789589115478E+02   -0.11517E-01   -0.13530E+01 12678   0.340E+00    0.303E+00
RMM:  30    -0.788022934126E+02    0.15662E+00   -0.15878E+01 14316   0.401E+00    0.233E+00
RMM:  31    -0.789804450532E+02   -0.17815E+00   -0.11731E+01 14931   0.323E+00    0.284E+00
RMM:  32    -0.787761575709E+02    0.20429E+00   -0.13799E+01 12730   0.345E+00    0.165E+00
RMM:  33    -0.789900963356E+02   -0.21394E+00   -0.82554E+00 15100   0.265E+00    0.233E+00
RMM:  34    -0.787673395691E+02    0.22276E+00   -0.14984E+01 15068   0.387E+00    0.194E+00
RMM:  35    -0.788979290975E+02   -0.13059E+00   -0.10825E+01 14683   0.296E+00    0.295E+00
RMM:  36    -0.788387712407E+02    0.59158E-01   -0.13823E+01 13377   0.355E+00    0.244E+00
RMM:  37    -0.789540425332E+02   -0.11527E+00   -0.12219E+01 13171   0.311E+00    0.309E+00
RMM:  38    -0.788159517850E+02    0.13809E+00   -0.14387E+01 14584   0.375E+00    0.211E+00
RMM:  39    -0.789705013640E+02   -0.15455E+00   -0.12042E+01 13132   0.314E+00    0.298E+00
RMM:  40    -0.788951149846E+02    0.75386E-01   -0.15039E+01 12860   0.372E+00    0.238E+00
RMM:  41    -0.789816629204E+02   -0.86548E-01   -0.12347E+01 13357   0.315E+00    0.332E+00
RMM:  42    -0.787995942992E+02    0.18207E+00   -0.14783E+01 13605   0.371E+00    0.185E+00
RMM:  43    -0.788788362159E+02   -0.79242E-01   -0.10811E+01 15245   0.301E+00    0.267E+00
RMM:  44    -0.788128788485E+02    0.65957E-01   -0.12666E+01 13541   0.319E+00    0.182E+00
RMM:  45    -0.789092333956E+02   -0.96355E-01   -0.99797E+00 12656   0.266E+00    0.240E+00
RMM:  46    -0.788314121625E+02    0.77821E-01   -0.13127E+01 13968   0.339E+00    0.195E+00
RMM:  47    -0.789590670835E+02   -0.12765E+00   -0.11423E+01 12562   0.291E+00    0.279E+00
RMM:  48    -0.788167392652E+02    0.14233E+00   -0.13961E+01 13853   0.359E+00    0.217E+00
RMM:  49    -0.788773870029E+02   -0.60648E-01   -0.13281E+01 13251   0.322E+00    0.254E+00
RMM:  50    -0.788082193702E+02    0.69168E-01   -0.12344E+01 12005   0.315E+00    0.213E+00
RMM:  51    -0.789656053681E+02   -0.15739E+00   -0.11488E+01 13114   0.294E+00    0.243E+00
RMM:  52    -0.788496831723E+02    0.11592E+00   -0.13818E+01 16844   0.363E+00    0.209E+00
RMM:  53    -0.789758793221E+02   -0.12620E+00   -0.11571E+01 14332   0.307E+00    0.271E+00
RMM:  54    -0.788823728492E+02    0.93506E-01   -0.14725E+01 15003   0.384E+00    0.204E+00
RMM:  55    -0.789989635196E+02   -0.11659E+00   -0.12428E+01 12932   0.322E+00    0.315E+00
RMM:  56    -0.788000899688E+02    0.19887E+00   -0.15351E+01 15692   0.408E+00    0.237E+00
RMM:  57    -0.789413086825E+02   -0.14122E+00   -0.11590E+01 14725   0.327E+00    0.279E+00
RMM:  58    -0.788941974941E+02    0.47111E-01   -0.13059E+01 13082   0.333E+00    0.201E+00
RMM:  59    -0.789747357015E+02   -0.80538E-01   -0.10722E+01 13375   0.286E+00    0.260E+00
RMM:  60    -0.789160159115E+02    0.58720E-01   -0.13982E+01 14183   0.373E+00
   2 F= -.78916016E+02 E0= -.78871901E+02  d E =0.398983E+01  mag=     5.0770
 trial-energy change:    3.989827  1 .order    6.291062   -7.809120   20.391245
 step:   0.3938(harm=  0.2769)  dis= 0.01211  next Energy=   -84.583984 (dE=-0.168E+01)
 bond charge predicted
       N       E                     dE             d eps       ncg     rms          rms(c)
DAV:   1    -0.988174813808E+02   -0.19843E+02   -0.49054E+02 20712   0.206E+02    0.266E+01
RMM:   2    -0.891518136405E+02    0.96657E+01   -0.43226E+01 18559   0.371E+01    0.153E+01
RMM:   3    -0.872239027043E+02    0.19279E+01   -0.90813E+00 18283   0.207E+01    0.123E+01
RMM:   4    -0.848124825768E+02    0.24114E+01   -0.59276E+00 20387   0.136E+01    0.391E+00
RMM:   5    -0.846654295263E+02    0.14705E+00   -0.85715E-01 20616   0.564E+00    0.108E+00
RMM:   6    -0.848391771201E+02   -0.17375E+00   -0.63263E-01 18400   0.280E+00    0.109E+00
RMM:   7    -0.850651438420E+02   -0.22597E+00   -0.73824E+00 19426   0.342E+00    0.139E+00
RMM:   8    -0.852869980188E+02   -0.22185E+00   -0.14457E+01 18691   0.437E+00    0.202E+00
RMM:   9    -0.852645719286E+02    0.22426E-01   -0.13254E+01 19437   0.485E+00    0.230E+00
RMM:  10    -0.852643047049E+02    0.26722E-03   -0.15369E+01 19816   0.467E+00    0.247E+00
RMM:  11    -0.850717393806E+02    0.19257E+00   -0.19841E+01 18231   0.495E+00    0.189E+00
RMM:  12    -0.852458966091E+02   -0.17416E+00   -0.13230E+01 18491   0.384E+00    0.237E+00
RMM:  13    -0.851038834221E+02    0.14201E+00   -0.18478E+01 18381   0.489E+00    0.153E+00
RMM:  14    -0.852146554140E+02   -0.11077E+00   -0.13895E+01 16504   0.375E+00    0.203E+00
RMM:  15    -0.849950368465E+02    0.21962E+00   -0.19090E+01 16703   0.466E+00    0.130E+00
RMM:  16    -0.851483299613E+02   -0.15329E+00   -0.11522E+01 16350   0.339E+00    0.148E+00
RMM:  17    -0.849092087815E+02    0.23912E+00   -0.16154E+01 14630   0.401E+00    0.114E+00
RMM:  18    -0.852060445780E+02   -0.29684E+00   -0.10817E+01 14027   0.306E+00    0.197E+00
RMM:  19    -0.850807052185E+02    0.12534E+00   -0.17328E+01 14524   0.443E+00    0.149E+00
RMM:  20    -0.852507100229E+02   -0.17000E+00   -0.13907E+01 12053   0.358E+00    0.246E+00
RMM:  21    -0.851525790254E+02    0.98131E-01   -0.19746E+01 14965   0.499E+00    0.190E+00
RMM:  22    -0.851979764361E+02   -0.45397E-01   -0.16230E+01 14513   0.417E+00    0.237E+00
RMM:  23    -0.850447421759E+02    0.15323E+00   -0.16001E+01 14445   0.424E+00    0.157E+00
RMM:  24    -0.852218143698E+02   -0.17707E+00   -0.13198E+01 13899   0.366E+00    0.251E+00
RMM:  25    -0.850308919894E+02    0.19092E+00   -0.17746E+01 14079   0.464E+00    0.161E+00
RMM:  26    -0.851793552475E+02   -0.14846E+00   -0.13698E+01 14974   0.382E+00    0.194E+00
RMM:  27    -0.850415721502E+02    0.13778E+00   -0.17110E+01 13214   0.429E+00    0.123E+00
RMM:  28    -0.852065080398E+02   -0.16494E+00   -0.12502E+01 14552   0.353E+00    0.197E+00
RMM:  29    -0.850022810869E+02    0.20423E+00   -0.16367E+01 13881   0.421E+00    0.122E+00
RMM:  30    -0.851308306365E+02   -0.12855E+00   -0.12588E+01 14328   0.342E+00    0.214E+00
RMM:  31    -0.849882542577E+02    0.14258E+00   -0.16229E+01 13663   0.420E+00    0.153E+00
RMM:  32    -0.852129774872E+02   -0.22472E+00   -0.13023E+01 12876   0.348E+00    0.177E+00
RMM:  33    -0.849913258261E+02    0.22165E+00   -0.17369E+01 13367   0.433E+00    0.117E+00
RMM:  34    -0.852211937919E+02   -0.22987E+00   -0.11841E+01 13329   0.330E+00    0.177E+00
RMM:  35    -0.850531066118E+02    0.16809E+00   -0.16304E+01 14397   0.432E+00    0.143E+00
RMM:  36    -0.850914961994E+02   -0.38390E-01   -0.13828E+01 12127   0.362E+00    0.229E+00
RMM:  37    -0.850416104353E+02    0.49886E-01   -0.16159E+01 13101   0.411E+00    0.136E+00
RMM:  38    -0.851632589382E+02   -0.12165E+00   -0.13036E+01 13431   0.351E+00    0.193E+00
RMM:  39    -0.850689163977E+02    0.94343E-01   -0.15832E+01 14465   0.419E+00    0.144E+00
RMM:  40    -0.852322621240E+02   -0.16335E+00   -0.13629E+01 13384   0.369E+00    0.207E+00
RMM:  41    -0.850860822514E+02    0.14618E+00   -0.17559E+01 14317   0.451E+00    0.173E+00
RMM:  42    -0.852309858195E+02   -0.14490E+00   -0.15442E+01 13218   0.402E+00    0.220E+00
RMM:  43    -0.850324091968E+02    0.19858E+00   -0.17340E+01 14547   0.464E+00    0.185E+00
RMM:  44    -0.851413526991E+02   -0.10894E+00   -0.16467E+01 13356   0.419E+00    0.189E+00
RMM:  45    -0.850648911994E+02    0.76461E-01   -0.14676E+01 11436   0.389E+00    0.172E+00
RMM:  46    -0.852211132130E+02   -0.15622E+00   -0.13091E+01 12571   0.361E+00    0.224E+00
RMM:  47    -0.851191853220E+02    0.10193E+00   -0.16664E+01 15025   0.436E+00    0.174E+00
RMM:  48    -0.851256096233E+02   -0.64243E-02   -0.15867E+01 13107   0.406E+00    0.194E+00
RMM:  49    -0.850923243190E+02    0.33285E-01   -0.14477E+01 12782   0.393E+00    0.170E+00
RMM:  50    -0.852185078935E+02   -0.12618E+00   -0.14613E+01 13409   0.389E+00    0.209E+00
RMM:  51    -0.851368126249E+02    0.81695E-01   -0.14543E+01 13801   0.410E+00    0.189E+00
RMM:  52    -0.852157798472E+02   -0.78967E-01   -0.15003E+01 17889   0.434E+00    0.206E+00
RMM:  53    -0.850799867460E+02    0.13579E+00   -0.15571E+01 16210   0.427E+00    0.177E+00
RMM:  54    -0.850899441586E+02   -0.99574E-02   -0.15730E+01 15852   0.415E+00    0.200E+00
RMM:  55    -0.850370045632E+02    0.52940E-01   -0.15722E+01 13933   0.409E+00    0.145E+00
RMM:  56    -0.852394497608E+02   -0.20245E+00   -0.13968E+01 15137   0.379E+00    0.199E+00
RMM:  57    -0.851672651192E+02    0.72185E-01   -0.16724E+01 14383   0.435E+00    0.157E+00
RMM:  58    -0.852283134380E+02   -0.61048E-01   -0.15067E+01 13045   0.397E+00    0.204E+00
RMM:  59    -0.851007938889E+02    0.12752E+00   -0.17736E+01 14142   0.463E+00    0.145E+00
RMM:  60    -0.851662775542E+02   -0.65484E-01   -0.14484E+01 13652   0.390E+00
   3 F= -.85166278E+02 E0= -.85115564E+02  d E =-.226043E+01  mag=     4.6717
 curvature:  -0.13 expect dE=-0.298E+00 dE for cont linesearch -0.624E-01
 ZBRENT: interpolating
 opt :   0.3167  next Energy=   -85.239522 (dE=-0.233E+01)
 bond charge predicted
       N       E                     dE             d eps       ncg     rms          rms(c)
DAV:   1    -0.844245611114E+02    0.67623E+00   -0.29389E+01 20064   0.263E+01    0.394E+00
RMM:   2    -0.845147452165E+02   -0.90184E-01   -0.88247E-01 18701   0.543E+00    0.177E+00
RMM:   3    -0.845281250435E+02   -0.13380E-01   -0.17710E-01 17978   0.288E+00    0.166E+00
RMM:   4    -0.844979420805E+02    0.30183E-01   -0.10208E-01 19939   0.165E+00    0.517E-01
RMM:   5    -0.844958905394E+02    0.20515E-02   -0.10952E-02 19418   0.654E-01    0.274E-01
RMM:   6    -0.844957886094E+02    0.10193E-03   -0.39016E-03 18725   0.348E-01    0.132E-01
RMM:   7    -0.844959153463E+02   -0.12674E-03   -0.94806E-04 15478   0.211E-01    0.568E-02
RMM:   8    -0.844958884680E+02    0.26878E-04   -0.25815E-04 10894   0.918E-02
   4 F= -.84495888E+02 E0= -.84479812E+02  d E =-.159005E+01  mag=     5.0004
 curvature:  -0.16 expect dE=-0.318E+00 dE for cont linesearch -0.980E-01
 ZBRENT: interpolating
 opt :   0.3581  next Energy=   -85.200236 (dE=-0.229E+01)
 bond charge predicted
       N       E                     dE             d eps       ncg     rms          rms(c)
DAV:   1    -0.846370698551E+02   -0.14115E+00   -0.20239E+00 20120   0.109E+01    0.186E+00
RMM:   2    -0.845844568526E+02    0.52613E-01   -0.20545E-01 18593   0.245E+00    0.882E-01
RMM:   3    -0.845760168150E+02    0.84400E-02   -0.42277E-02 17134   0.143E+00    0.773E-01
RMM:   4    -0.845674440563E+02    0.85728E-02   -0.20913E-02 19232   0.822E-01    0.212E-01
RMM:   5    -0.845668818970E+02    0.56216E-03   -0.27535E-03 19224   0.285E-01    0.874E-02
RMM:   6    -0.845667004041E+02    0.18149E-03   -0.54404E-04 13763   0.142E-01    0.382E-02
RMM:   7    -0.845666889434E+02    0.11461E-04   -0.26100E-04 11517   0.949E-02
   5 F= -.84566689E+02 E0= -.84551031E+02  d E =-.166085E+01  mag=     5.0000
 curvature:  -0.05 expect dE=-0.107E+00 dE for cont linesearch -0.839E-02
 ZBRENT: interpolating
 opt :   0.3711  next Energy=   -84.573818 (dE=-0.167E+01)
 bond charge predicted
       N       E                     dE             d eps       ncg     rms          rms(c)
DAV:   1    -0.845857166467E+02   -0.19016E-01   -0.20022E-01 20880   0.346E+00    0.592E-01
RMM:   2    -0.845805977902E+02    0.51189E-02   -0.21622E-02 18572   0.792E-01    0.290E-01
RMM:   3    -0.845796299722E+02    0.96782E-03   -0.43566E-03 17102   0.450E-01    0.244E-01
RMM:   4    -0.845787584558E+02    0.87152E-03   -0.21146E-03 17861   0.265E-01    0.658E-02
RMM:   5    -0.845787039286E+02    0.54527E-04   -0.29971E-04 12503   0.105E-01
   6 F= -.84578704E+02 E0= -.84563170E+02  d E =-.167286E+01  mag=     5.0000
 curvature:  -0.05 expect dE=-0.934E-01 dE for cont linesearch -0.282E-02
 ZBRENT: interpolating
 opt :   0.3874  next Energy=   -84.585783 (dE=-0.168E+01)
 bond charge predicted
       N       E                     dE             d eps       ncg     rms          rms(c)
DAV:   1    -0.845973594570E+02   -0.18601E-01   -0.31285E-01 22320   0.432E+00    0.727E-01
RMM:   2    -0.845894849302E+02    0.78745E-02   -0.32329E-02 18638   0.977E-01    0.352E-01
RMM:   3    -0.845880873210E+02    0.13976E-02   -0.66331E-03 17247   0.555E-01    0.302E-01
RMM:   4    -0.845867496273E+02    0.13377E-02   -0.33897E-03 18721   0.330E-01    0.793E-02
RMM:   5    -0.845866609368E+02    0.88690E-04   -0.42383E-04 13597   0.124E-01
   7 F= -.84586661E+02 E0= -.84571209E+02  d E =-.168082E+01  mag=     5.0000
 curvature:  -0.12 expect dE=-0.250E+00 dE for cont linesearch -0.651E-03
 trial: gam= 0.24725 g(F)=  0.208E+01 g(S)=  0.639E-01 ort = 0.209E+00 (trialstep = 0.877E+00)
 search vector abs. value=  0.272E+01
 bond charge predicted
       N       E                     dE             d eps       ncg     rms          rms(c)
DAV:   1    -0.849179908970E+02   -0.33124E+00   -0.45393E+02 16192   0.110E+02    0.115E+01
RMM:   2    -0.844728092546E+02    0.44518E+00   -0.23726E+01 17520   0.297E+01    0.580E+00
RMM:   3    -0.847480958544E+02   -0.27529E+00   -0.43126E+00 19179   0.118E+01    0.598E+00
RMM:   4    -0.842664741611E+02    0.48162E+00   -0.72755E-01 17344   0.557E+00    0.185E+00
RMM:   5    -0.842610422341E+02    0.54319E-02   -0.18754E-01 19724   0.233E+00    0.115E+00
RMM:   6    -0.842621546080E+02   -0.11124E-02   -0.58557E-02 19908   0.125E+00    0.952E-01
RMM:   7    -0.842708097118E+02   -0.86551E-02   -0.22579E-02 18783   0.919E-01    0.692E-01
RMM:   8    -0.843121778559E+02   -0.41368E-01   -0.12768E-02 18975   0.671E-01    0.569E-01
RMM:   9    -0.846167773160E+02   -0.30460E+00   -0.14976E+00 19170   0.110E+00    0.126E+00
RMM:  10    -0.849057806278E+02   -0.28900E+00   -0.80352E+00 16910   0.355E+00    0.187E+00
RMM:  11    -0.849314677042E+02   -0.25687E-01   -0.14619E+01 17917   0.484E+00    0.255E+00
RMM:  12    -0.847812291420E+02    0.15024E+00   -0.14819E+01 17272   0.442E+00    0.240E+00
RMM:  13    -0.847034024161E+02    0.77827E-01   -0.12597E+01 18364   0.381E+00    0.293E+00
RMM:  14    -0.846810818689E+02    0.22321E-01   -0.15422E+01 17836   0.420E+00    0.193E+00
RMM:  15    -0.847422013974E+02   -0.61120E-01   -0.98617E+00 18059   0.306E+00    0.244E+00
RMM:  16    -0.846647140493E+02    0.77487E-01   -0.13831E+01 17899   0.372E+00    0.224E+00
RMM:  17    -0.847409222089E+02   -0.76208E-01   -0.11654E+01 17026   0.327E+00    0.235E+00
RMM:  18    -0.845847539797E+02    0.15617E+00   -0.12267E+01 13681   0.326E+00    0.202E+00
RMM:  19    -0.846499316963E+02   -0.65178E-01   -0.95036E+00 14721   0.274E+00    0.216E+00
RMM:  20    -0.846696365564E+02   -0.19705E-01   -0.11373E+01 12975   0.301E+00    0.209E+00
RMM:  21    -0.847146830631E+02   -0.45047E-01   -0.11318E+01 13257   0.310E+00    0.238E+00
RMM:  22    -0.846571425094E+02    0.57541E-01   -0.11406E+01 14234   0.339E+00    0.237E+00
RMM:  23    -0.846977756738E+02   -0.40633E-01   -0.12087E+01 13808   0.331E+00    0.241E+00
RMM:  24    -0.845904952248E+02    0.10728E+00   -0.13227E+01 13528   0.354E+00    0.215E+00
RMM:  25    -0.847085553683E+02   -0.11806E+00   -0.10314E+01 13559   0.292E+00    0.238E+00
RMM:  26    -0.845971517150E+02    0.11140E+00   -0.13075E+01 12450   0.352E+00    0.235E+00
RMM:  27    -0.847381918100E+02   -0.14104E+00   -0.12078E+01 13184   0.318E+00    0.241E+00
RMM:  28    -0.846585168370E+02    0.79675E-01   -0.11939E+01 13680   0.345E+00    0.239E+00
RMM:  29    -0.846736666255E+02   -0.15150E-01   -0.12951E+01 12853   0.342E+00    0.253E+00
RMM:  30    -0.846100180150E+02    0.63649E-01   -0.12669E+01 12257   0.341E+00    0.244E+00
RMM:  31    -0.847218685631E+02   -0.11185E+00   -0.12330E+01 13470   0.330E+00    0.266E+00
RMM:  32    -0.846259057058E+02    0.95963E-01   -0.14169E+01 13288   0.378E+00    0.211E+00
RMM:  33    -0.846584871117E+02   -0.32581E-01   -0.11814E+01 13624   0.320E+00    0.244E+00
RMM:  34    -0.846430248343E+02    0.15462E-01   -0.12777E+01 12288   0.335E+00    0.212E+00
RMM:  35    -0.845683759144E+02    0.74649E-01   -0.11932E+01 12128   0.313E+00    0.237E+00
RMM:  36    -0.845995301128E+02   -0.31154E-01   -0.11270E+01 16035   0.315E+00    0.194E+00
RMM:  37    -0.847517759007E+02   -0.15225E+00   -0.99790E+00 16555   0.290E+00    0.245E+00
RMM:  38    -0.846978294102E+02    0.53946E-01   -0.13530E+01 17171   0.386E+00    0.233E+00
RMM:  39    -0.847800066432E+02   -0.82177E-01   -0.12101E+01 16981   0.342E+00    0.249E+00
RMM:  40    -0.847141535835E+02    0.65853E-01   -0.13466E+01 16847   0.377E+00    0.248E+00
RMM:  41    -0.846158699108E+02    0.98284E-01   -0.12937E+01 13096   0.349E+00    0.251E+00
RMM:  42    -0.846143168768E+02    0.15530E-02   -0.12663E+01 14663   0.343E+00    0.213E+00
RMM:  43    -0.847331452231E+02   -0.11883E+00   -0.92428E+00 16850   0.285E+00    0.233E+00
RMM:  44    -0.846870026979E+02    0.46143E-01   -0.11541E+01 15212   0.341E+00    0.223E+00
RMM:  45    -0.847520443964E+02   -0.65042E-01   -0.10950E+01 16572   0.318E+00    0.244E+00
RMM:  46    -0.846768751449E+02    0.75169E-01   -0.12915E+01 16416   0.355E+00    0.236E+00
RMM:  47    -0.846833099838E+02   -0.64348E-02   -0.12212E+01 13187   0.329E+00    0.237E+00
RMM:  48    -0.846659701710E+02    0.17340E-01   -0.11762E+01 11815   0.326E+00    0.242E+00
RMM:  49    -0.847347471282E+02   -0.68777E-01   -0.12218E+01 12008   0.329E+00    0.235E+00
RMM:  50    -0.847243691262E+02    0.10378E-01   -0.10772E+01 12518   0.317E+00    0.248E+00
RMM:  51    -0.847378818488E+02   -0.13513E-01   -0.13197E+01 13621   0.359E+00    0.230E+00
RMM:  52    -0.847797893849E+02   -0.41908E-01   -0.12249E+01 18501   0.441E+00    0.270E+00
RMM:  53    -0.846725927150E+02    0.10720E+00   -0.12364E+01 18082   0.367E+00    0.277E+00
RMM:  54    -0.846229761392E+02    0.49617E-01   -0.13452E+01 16394   0.366E+00    0.256E+00
RMM:  55    -0.846544568690E+02   -0.31481E-01   -0.11963E+01 16803   0.332E+00    0.249E+00
RMM:  56    -0.846032943556E+02    0.51163E-01   -0.11807E+01 15545   0.321E+00    0.237E+00
RMM:  57    -0.847171293646E+02   -0.11384E+00   -0.10321E+01 15730   0.295E+00    0.239E+00
RMM:  58    -0.845909635733E+02    0.12617E+00   -0.11433E+01 12990   0.313E+00    0.242E+00
RMM:  59    -0.846534757651E+02   -0.62512E-01   -0.10147E+01 14335   0.287E+00    0.249E+00
RMM:  60    -0.845679517339E+02    0.85524E-01   -0.10948E+01 11335   0.303E+00
   8 F= -.84567952E+02 E0= -.84531126E+02  d E =0.187092E-01  mag=     4.8794
 trial-energy change:    0.018709  1 .order    0.524542   -1.922564    2.971648
 step:   0.4796(harm=  0.3447)  dis= 0.06547  next Energy=   -85.194581 (dE=-0.608E+00)
 bond charge predicted
       N       E                     dE             d eps       ncg     rms          rms(c)
DAV:   1    -0.849865256329E+02   -0.33305E+00   -0.10818E+02 17312   0.560E+01    0.480E+00
RMM:   2    -0.849780862702E+02    0.84394E-02   -0.33261E+00 17545   0.117E+01    0.237E+00
RMM:   3    -0.849210992231E+02    0.56987E-01   -0.69106E-01 19536   0.510E+00    0.101E+00
RMM:   4    -0.849176319344E+02    0.34673E-02   -0.13464E-01 21604   0.208E+00    0.423E-01
RMM:   5    -0.849145291469E+02    0.31028E-02   -0.16880E-02 20284   0.717E-01    0.289E-01
RMM:   6    -0.849137210536E+02    0.80809E-03   -0.37477E-03 16769   0.392E-01    0.173E-01
RMM:   7    -0.849135684741E+02    0.15258E-03   -0.19942E-03 17573   0.233E-01    0.102E-01
RMM:   8    -0.849335020696E+02   -0.19934E-01   -0.48002E-04 14256   0.123E-01    0.142E-01
RMM:   9    -0.850899170379E+02   -0.15641E+00   -0.44690E-01 12807   0.344E-01    0.850E-01
RMM:  10    -0.855114359013E+02   -0.42152E+00   -0.40495E+00 15771   0.206E+00    0.178E+00
RMM:  11    -0.855344304416E+02   -0.22995E-01   -0.13108E+01 16320   0.429E+00    0.212E+00
RMM:  12    -0.855550953012E+02   -0.20665E-01   -0.11902E+01 16265   0.378E+00    0.227E+00
RMM:  13    -0.854047115376E+02    0.15038E+00   -0.14694E+01 14860   0.389E+00    0.220E+00
RMM:  14    -0.855897812136E+02   -0.18507E+00   -0.13146E+01 13399   0.339E+00    0.277E+00
RMM:  15    -0.855189815953E+02    0.70800E-01   -0.16019E+01 14610   0.433E+00    0.258E+00
RMM:  16    -0.855865990010E+02   -0.67617E-01   -0.15165E+01 13662   0.396E+00    0.262E+00
RMM:  17    -0.855221050454E+02    0.64494E-01   -0.14740E+01 14090   0.401E+00    0.238E+00
RMM:  18    -0.854712269421E+02    0.50878E-01   -0.12318E+01 13057   0.345E+00    0.256E+00
RMM:  19    -0.854524701634E+02    0.18757E-01   -0.13657E+01 12334   0.364E+00    0.264E+00
RMM:  20    -0.855998396125E+02   -0.14737E+00   -0.13577E+01 12280   0.360E+00    0.270E+00
RMM:  21    -0.855263161591E+02    0.73523E-01   -0.14007E+01 13603   0.391E+00    0.282E+00
RMM:  22    -0.855834883720E+02   -0.57172E-01   -0.15753E+01 13308   0.415E+00    0.302E+00
RMM:  23    -0.854826204697E+02    0.10087E+00   -0.16430E+01 12928   0.422E+00    0.286E+00
RMM:  24    -0.855061831110E+02   -0.23563E-01   -0.14883E+01 13146   0.397E+00    0.279E+00
RMM:  25    -0.854417342935E+02    0.64449E-01   -0.14607E+01 13377   0.391E+00    0.268E+00
RMM:  26    -0.854610588332E+02   -0.19325E-01   -0.14132E+01 12895   0.372E+00    0.276E+00
RMM:  27    -0.854129811112E+02    0.48078E-01   -0.13879E+01 11099   0.368E+00    0.261E+00
RMM:  28    -0.854407467186E+02   -0.27766E-01   -0.15020E+01 13025   0.381E+00    0.273E+00
RMM:  29    -0.854856299159E+02   -0.44883E-01   -0.13482E+01 13285   0.356E+00    0.267E+00
RMM:  30    -0.854890689310E+02   -0.34390E-02   -0.13433E+01 13169   0.366E+00    0.265E+00
RMM:  31    -0.853894759247E+02    0.99593E-01   -0.15368E+01 13225   0.397E+00    0.243E+00
RMM:  32    -0.855018041981E+02   -0.11233E+00   -0.13084E+01 13653   0.353E+00    0.287E+00
RMM:  33    -0.855739551283E+02   -0.72151E-01   -0.13442E+01 13746   0.374E+00    0.301E+00
RMM:  34    -0.854068100634E+02    0.16715E+00   -0.15767E+01 13428   0.410E+00    0.267E+00
RMM:  35    -0.853638721047E+02    0.42938E-01   -0.15582E+01 13372   0.396E+00    0.248E+00
RMM:  36    -0.854098284346E+02   -0.45956E-01   -0.12168E+01 14063   0.335E+00    0.257E+00
RMM:  37    -0.854531516495E+02   -0.43323E-01   -0.12783E+01 11725   0.340E+00    0.252E+00
RMM:  38    -0.855428483269E+02   -0.89697E-01   -0.12425E+01 11822   0.340E+00    0.290E+00
RMM:  39    -0.854134161640E+02    0.12943E+00   -0.14821E+01 13454   0.395E+00    0.293E+00
RMM:  40    -0.854707642086E+02   -0.57348E-01   -0.14928E+01 12707   0.387E+00    0.284E+00
RMM:  41    -0.854080894215E+02    0.62675E-01   -0.14786E+01 12914   0.385E+00    0.285E+00
RMM:  42    -0.854941051781E+02   -0.86016E-01   -0.14007E+01 12567   0.363E+00    0.276E+00
RMM:  43    -0.853605295413E+02    0.13358E+00   -0.14738E+01 13014   0.385E+00    0.239E+00
RMM:  44    -0.854668672192E+02   -0.10634E+00   -0.12577E+01 13420   0.341E+00    0.238E+00
RMM:  45    -0.853228769332E+02    0.14399E+00   -0.12720E+01 12714   0.348E+00    0.251E+00
RMM:  46    -0.854623483935E+02   -0.13947E+00   -0.11003E+01 13389   0.316E+00    0.235E+00
RMM:  47    -0.853401236495E+02    0.12222E+00   -0.12482E+01 12129   0.341E+00    0.255E+00
RMM:  48    -0.855045586883E+02   -0.16444E+00   -0.11879E+01 12062   0.328E+00    0.279E+00
RMM:  49    -0.854347936732E+02    0.69765E-01   -0.13432E+01 12915   0.364E+00    0.249E+00
RMM:  50    -0.854975216800E+02   -0.62728E-01   -0.12224E+01 12971   0.335E+00    0.241E+00
RMM:  51    -0.853781850370E+02    0.11934E+00   -0.10785E+01 12184   0.315E+00    0.226E+00
RMM:  52    -0.853988457885E+02   -0.20661E-01   -0.12004E+01 19028   0.376E+00    0.218E+00
RMM:  53    -0.853533279317E+02    0.45518E-01   -0.11721E+01 18166   0.353E+00    0.226E+00
RMM:  54    -0.853839662341E+02   -0.30638E-01   -0.11804E+01 18842   0.351E+00    0.250E+00
RMM:  55    -0.853296572907E+02    0.54309E-01   -0.13587E+01 18096   0.366E+00    0.245E+00
RMM:  56    -0.854898781608E+02   -0.16022E+00   -0.10097E+01 17417   0.305E+00    0.255E+00
RMM:  57    -0.854997261268E+02   -0.98480E-02   -0.12911E+01 17657   0.363E+00    0.292E+00
RMM:  58    -0.855086022606E+02   -0.88761E-02   -0.14394E+01 16722   0.400E+00    0.294E+00
RMM:  59    -0.854900595494E+02    0.18543E-01   -0.14378E+01 16080   0.388E+00    0.312E+00
RMM:  60    -0.855529598393E+02   -0.62900E-01   -0.13826E+01 15663   0.389E+00
   9 F= -.85552960E+02 E0= -.85507331E+02  d E =-.966299E+00  mag=     5.0726
 curvature:  -0.20 expect dE=-0.837E+00 dE for cont linesearch -0.145E+00
 ZBRENT: interpolating
 opt :   0.2924  next Energy=   -85.684278 (dE=-0.110E+01)
 bond charge predicted
       N       E                     dE             d eps       ncg     rms          rms(c)
DAV:   1    -0.847571309178E+02    0.73293E+00   -0.40609E+01 17200   0.295E+01    0.249E+00
RMM:   2    -0.849492272679E+02   -0.19210E+00   -0.82354E-01 17638   0.592E+00    0.142E+00
RMM:   3    -0.849524155567E+02   -0.31883E-02   -0.12443E-01 17950   0.241E+00    0.109E+00
RMM:   4    -0.849451380830E+02    0.72775E-02   -0.73152E-02 20252   0.136E+00    0.477E-01
RMM:   5    -0.849430205854E+02    0.21175E-02   -0.66391E-03 18535   0.532E-01    0.170E-01
RMM:   6    -0.849430194890E+02    0.10964E-05   -0.25404E-03 18415   0.260E-01    0.103E-01
RMM:   7    -0.849430736553E+02   -0.54166E-04   -0.61798E-04 14520   0.173E-01
  10 F= -.84943074E+02 E0= -.84919749E+02  d E =-.356413E+00  mag=     5.0000
 curvature:  -0.18 expect dE=-0.148E+00 dE for cont linesearch -0.900E-02
 ZBRENT: interpolating
 opt :   0.3312  next Energy=   -84.950205 (dE=-0.364E+00)
 bond charge predicted
       N       E                     dE             d eps       ncg     rms          rms(c)
DAV:   1    -0.849552094160E+02   -0.12190E-01   -0.91322E-01 17248   0.506E+00    0.471E-01
RMM:   2    -0.849539027083E+02    0.13067E-02   -0.33022E-02 17038   0.121E+00    0.271E-01
RMM:   3    -0.849543453014E+02   -0.44259E-03   -0.76084E-03 18989   0.470E-01    0.256E-01
RMM:   4    -0.849532237666E+02    0.11215E-02   -0.14964E-03 16565   0.261E-01    0.584E-02
RMM:   5    -0.849532023132E+02    0.21453E-04   -0.25957E-04 11655   0.922E-02
  11 F= -.84953202E+02 E0= -.84929483E+02  d E =-.366541E+00  mag=     5.0000
 curvature:  -0.14 expect dE=-0.135E+00 dE for cont linesearch -0.114E-02
 trial: gam= 0.29168 g(F)=  0.735E+00 g(S)=  0.201E+00 ort = 0.147E+00 (trialstep = 0.768E+00)
 search vector abs. value=  0.125E+01
 bond charge predicted
       N       E                     dE             d eps       ncg     rms          rms(c)
DAV:   1    -0.846659791121E+02    0.28724E+00   -0.17890E+02 16392   0.632E+01    0.315E+00
RMM:   2    -0.853727280096E+02   -0.70675E+00   -0.64169E+00 16889   0.156E+01    0.460E+00
RMM:   3    -0.852527234836E+02    0.12000E+00   -0.73845E-01 19889   0.510E+00    0.169E+00
RMM:   4    -0.852366997378E+02    0.16024E-01   -0.79675E-02 18767   0.185E+00    0.126E+00
RMM:   5    -0.852335261908E+02    0.31735E-02   -0.88033E-02 18415   0.161E+00    0.681E-01
RMM:   6    -0.852422491046E+02   -0.87229E-02   -0.24458E-02 18655   0.915E-01    0.508E-01
RMM:   7    -0.852465549895E+02   -0.43059E-02   -0.86479E-03 18825   0.553E-01    0.405E-01
RMM:   8    -0.852513441653E+02   -0.47892E-02   -0.16308E-02 18299   0.768E-01    0.236E-01
RMM:   9    -0.852615600107E+02   -0.10216E-01   -0.70923E-03 17374   0.416E-01    0.192E-01
RMM:  10    -0.853021709135E+02   -0.40611E-01   -0.11500E-01 17930   0.379E-01    0.336E-01
RMM:  11    -0.854055658701E+02   -0.10339E+00   -0.19742E+00 14863   0.970E-01    0.835E-01
RMM:  12    -0.855564217433E+02   -0.15086E+00   -0.63867E+00 14989   0.224E+00    0.183E+00
RMM:  13    -0.857769425715E+02   -0.22052E+00   -0.10980E+01 15952   0.371E+00    0.210E+00
RMM:  14    -0.857285246888E+02    0.48418E-01   -0.10072E+01 15902   0.359E+00    0.261E+00
RMM:  15    -0.856163464496E+02    0.11218E+00   -0.13647E+01 14883   0.384E+00    0.226E+00
RMM:  16    -0.856029609662E+02    0.13385E-01   -0.10479E+01 13171   0.293E+00    0.242E+00
RMM:  17    -0.855241616110E+02    0.78799E-01   -0.12566E+01 14338   0.345E+00    0.193E+00
RMM:  18    -0.855910106868E+02   -0.66849E-01   -0.99497E+00 13544   0.294E+00    0.228E+00
RMM:  19    -0.855238426227E+02    0.67168E-01   -0.12491E+01 12383   0.330E+00    0.177E+00
RMM:  20    -0.855929594306E+02   -0.69117E-01   -0.10071E+01 13307   0.289E+00    0.184E+00
RMM:  21    -0.856502785721E+02   -0.57319E-01   -0.86024E+00 11635   0.256E+00    0.194E+00
RMM:  22    -0.856471160162E+02    0.31626E-02   -0.10220E+01 12990   0.290E+00    0.239E+00
RMM:  23    -0.855804250588E+02    0.66691E-01   -0.12027E+01 14516   0.341E+00    0.229E+00
RMM:  24    -0.855762599046E+02    0.41652E-02   -0.10502E+01 12818   0.302E+00    0.260E+00
RMM:  25    -0.855055627980E+02    0.70697E-01   -0.14021E+01 11509   0.360E+00    0.207E+00
RMM:  26    -0.856688936733E+02   -0.16333E+00   -0.10534E+01 13346   0.302E+00    0.246E+00
RMM:  27    -0.856058294862E+02    0.63064E-01   -0.12073E+01 14125   0.346E+00    0.275E+00
RMM:  28    -0.856017038163E+02    0.41257E-02   -0.13718E+01 13566   0.372E+00    0.292E+00
RMM:  29    -0.855446077420E+02    0.57096E-01   -0.13826E+01 13012   0.374E+00    0.247E+00
RMM:  30    -0.855527879380E+02   -0.81802E-02   -0.12346E+01 13685   0.338E+00    0.260E+00
RMM:  31    -0.854587229564E+02    0.94065E-01   -0.12796E+01 13793   0.349E+00    0.197E+00
RMM:  32    -0.856357436774E+02   -0.17702E+00   -0.99509E+00 15106   0.290E+00    0.258E+00
RMM:  33    -0.855225712975E+02    0.11317E+00   -0.13136E+01 14075   0.369E+00    0.248E+00
RMM:  34    -0.856171844989E+02   -0.94613E-01   -0.11329E+01 12825   0.311E+00    0.293E+00
RMM:  35    -0.855574651967E+02    0.59719E-01   -0.14040E+01 13962   0.388E+00    0.257E+00
RMM:  36    -0.855896388787E+02   -0.32174E-01   -0.12951E+01 13808   0.353E+00    0.259E+00
RMM:  37    -0.856219368104E+02   -0.32298E-01   -0.12224E+01 12880   0.342E+00    0.233E+00
RMM:  38    -0.856771853939E+02   -0.55249E-01   -0.12538E+01 13167   0.344E+00    0.271E+00
RMM:  39    -0.856227751452E+02    0.54410E-01   -0.12287E+01 13616   0.357E+00    0.266E+00
RMM:  40    -0.856736500295E+02   -0.50875E-01   -0.12732E+01 13156   0.361E+00    0.318E+00
RMM:  41    -0.854945112905E+02    0.17914E+00   -0.16351E+01 12633   0.419E+00    0.247E+00
RMM:  42    -0.855764866811E+02   -0.81975E-01   -0.10854E+01 14387   0.322E+00    0.251E+00
RMM:  43    -0.856374754984E+02   -0.60989E-01   -0.12241E+01 13279   0.341E+00    0.268E+00
RMM:  44    -0.855838640877E+02    0.53611E-01   -0.13312E+01 11890   0.357E+00    0.264E+00
RMM:  45    -0.855404788651E+02    0.43385E-01   -0.12982E+01 12150   0.344E+00    0.210E+00
RMM:  46    -0.856008814337E+02   -0.60403E-01   -0.10942E+01 14080   0.312E+00    0.238E+00
RMM:  47    -0.855566107635E+02    0.44271E-01   -0.10415E+01 13138   0.302E+00    0.265E+00
RMM:  48    -0.855954280175E+02   -0.38817E-01   -0.13127E+01 13501   0.344E+00    0.246E+00
RMM:  49    -0.854585740429E+02    0.13685E+00   -0.13281E+01 13334   0.356E+00    0.207E+00
RMM:  50    -0.855971111977E+02   -0.13854E+00   -0.97424E+00 13775   0.290E+00    0.236E+00
RMM:  51    -0.854508174767E+02    0.14629E+00   -0.11774E+01 13161   0.330E+00    0.203E+00
RMM:  52    -0.856537483424E+02   -0.20293E+00   -0.10527E+01 16629   0.303E+00    0.227E+00
RMM:  53    -0.855090158823E+02    0.14473E+00   -0.12398E+01 14600   0.350E+00    0.253E+00
RMM:  54    -0.856124795616E+02   -0.10346E+00   -0.11684E+01 13368   0.318E+00    0.232E+00
RMM:  55    -0.855199168150E+02    0.92563E-01   -0.11963E+01 12930   0.335E+00    0.211E+00
RMM:  56    -0.855262923683E+02   -0.63756E-02   -0.10763E+01 12914   0.301E+00    0.242E+00
RMM:  57    -0.855443896791E+02   -0.18097E-01   -0.10513E+01 17902   0.375E+00    0.234E+00
RMM:  58    -0.855652804729E+02   -0.20891E-01   -0.12617E+01 17790   0.354E+00    0.230E+00
RMM:  59    -0.855141679023E+02    0.51113E-01   -0.11054E+01 16772   0.337E+00    0.210E+00
RMM:  60    -0.854684468006E+02    0.45721E-01   -0.10153E+01 15876   0.298E+00
  12 F= -.85468447E+02 E0= -.85410122E+02  d E =-.515244E+00  mag=     4.8234
 trial-energy change:   -0.515244  1 .order   -0.332042   -0.751680    0.087597
 step:   0.7326(harm=  0.6880)  dis= 0.05608  next Energy=   -85.470461 (dE=-0.517E+00)
 bond charge predicted
       N       E                     dE             d eps       ncg     rms          rms(c)
DAV:   1    -0.851134563524E+02    0.40071E+00   -0.11950E+01 16136   0.627E+00    0.107E+00
RMM:   2    -0.852306378831E+02   -0.11718E+00   -0.60887E-02 17525   0.176E+00    0.662E-01
RMM:   3    -0.852448085717E+02   -0.14171E-01   -0.11548E-02 17539   0.748E-01    0.331E-01
RMM:   4    -0.852488410715E+02   -0.40325E-02   -0.34880E-03 17752   0.372E-01    0.377E-01
RMM:   5    -0.852506918340E+02   -0.18508E-02   -0.11041E-03 13947   0.226E-01    0.449E-01
RMM:   6    -0.852467523678E+02    0.39395E-02   -0.13032E-03 15465   0.259E-01    0.567E-01
RMM:   7    -0.852443695437E+02    0.23828E-02   -0.96138E-04 15492   0.216E-01    0.654E-01
RMM:   8    -0.852478284759E+02   -0.34589E-02   -0.41075E-04 12655   0.149E-01    0.527E-01
RMM:   9    -0.852557338332E+02   -0.79054E-02   -0.12593E-02 16886   0.733E-01    0.832E-02
RMM:  10    -0.853271467822E+02   -0.71413E-01   -0.12884E-01 17315   0.387E-01    0.424E-01
RMM:  11    -0.854894330251E+02   -0.16229E+00   -0.23869E+00 15517   0.117E+00    0.106E+00
RMM:  12    -0.857264808970E+02   -0.23705E+00   -0.71028E+00 16484   0.267E+00    0.208E+00
RMM:  13    -0.859200666497E+02   -0.19359E+00   -0.13971E+01 16346   0.472E+00    0.300E+00
RMM:  14    -0.860197843423E+02   -0.99718E-01   -0.16117E+01 16887   0.508E+00    0.387E+00
RMM:  15    -0.858613433584E+02    0.15844E+00   -0.19965E+01 16738   0.577E+00    0.366E+00
RMM:  16    -0.857963389218E+02    0.65004E-01   -0.17196E+01 15243   0.466E+00    0.312E+00
RMM:  17    -0.856619729851E+02    0.13437E+00   -0.14382E+01 14379   0.409E+00    0.251E+00
RMM:  18    -0.857860672612E+02   -0.12409E+00   -0.10692E+01 14716   0.330E+00    0.278E+00
RMM:  19    -0.856749658538E+02    0.11110E+00   -0.14583E+01 12761   0.399E+00    0.287E+00
RMM:  20    -0.857412478761E+02   -0.66282E-01   -0.12285E+01 13281   0.352E+00    0.290E+00
RMM:  21    -0.855707033840E+02    0.17054E+00   -0.15137E+01 12279   0.402E+00    0.265E+00
RMM:  22    -0.856722996198E+02   -0.10160E+00   -0.12077E+01 13773   0.341E+00    0.239E+00
RMM:  23    -0.856143568862E+02    0.57943E-01   -0.12106E+01 13534   0.354E+00    0.248E+00
RMM:  24    -0.855690853672E+02    0.45272E-01   -0.11913E+01 13090   0.335E+00    0.255E+00
RMM:  25    -0.856053420596E+02   -0.36257E-01   -0.11393E+01 13213   0.320E+00    0.242E+00
RMM:  26    -0.856668047757E+02   -0.61463E-01   -0.11436E+01 12302   0.315E+00    0.293E+00
RMM:  27    -0.856222706544E+02    0.44534E-01   -0.14176E+01 13911   0.388E+00    0.255E+00
RMM:  28    -0.858013916555E+02   -0.17912E+00   -0.11838E+01 13356   0.343E+00    0.295E+00
RMM:  29    -0.856116116646E+02    0.18978E+00   -0.14520E+01 14718   0.414E+00    0.277E+00
RMM:  30    -0.856901188364E+02   -0.78507E-01   -0.12518E+01 13392   0.349E+00    0.295E+00
RMM:  31    -0.856125304301E+02    0.77588E-01   -0.14019E+01 13447   0.395E+00    0.275E+00
RMM:  32    -0.856659323973E+02   -0.53402E-01   -0.13535E+01 12401   0.366E+00    0.316E+00
RMM:  33    -0.855805936593E+02    0.85339E-01   -0.14384E+01 13379   0.392E+00    0.286E+00
RMM:  34    -0.855348285218E+02    0.45765E-01   -0.13323E+01 12400   0.361E+00    0.258E+00
RMM:  35    -0.855164544968E+02    0.18374E-01   -0.11365E+01 14391   0.326E+00    0.247E+00
RMM:  36    -0.855134729940E+02    0.29815E-02   -0.11872E+01 14593   0.333E+00    0.223E+00
RMM:  37    -0.856629188510E+02   -0.14945E+00   -0.96467E+00 13702   0.283E+00    0.229E+00
RMM:  38    -0.856665560183E+02   -0.36372E-02   -0.10972E+01 13558   0.323E+00    0.285E+00
RMM:  39    -0.856451900069E+02    0.21366E-01   -0.13460E+01 13954   0.377E+00    0.254E+00
RMM:  40    -0.855900187721E+02    0.55171E-01   -0.12551E+01 11863   0.340E+00    0.267E+00
RMM:  41    -0.855520173868E+02    0.38001E-01   -0.12013E+01 11798   0.332E+00    0.252E+00
RMM:  42    -0.855578561852E+02   -0.58388E-02   -0.12789E+01 13096   0.340E+00    0.277E+00
RMM:  43    -0.854877839002E+02    0.70072E-01   -0.11699E+01 13421   0.327E+00    0.202E+00
RMM:  44    -0.855638032061E+02   -0.76019E-01   -0.99363E+00 15129   0.287E+00    0.210E+00
RMM:  45    -0.855686737353E+02   -0.48705E-02   -0.10045E+01 12445   0.288E+00    0.229E+00
RMM:  46    -0.855852342904E+02   -0.16561E-01   -0.11014E+01 13464   0.317E+00    0.248E+00
RMM:  47    -0.855528180459E+02    0.32416E-01   -0.13314E+01 16640   0.363E+00    0.244E+00
RMM:  48    -0.855651621804E+02   -0.12344E-01   -0.12062E+01 14049   0.332E+00    0.271E+00
RMM:  49    -0.854835070942E+02    0.81655E-01   -0.12620E+01 12826   0.340E+00    0.204E+00
RMM:  50    -0.856130769230E+02   -0.12957E+00   -0.89245E+00 14385   0.272E+00    0.244E+00
RMM:  51    -0.855794694137E+02    0.33608E-01   -0.11809E+01 12424   0.318E+00    0.228E+00
RMM:  52    -0.856127495637E+02   -0.33280E-01   -0.11775E+01 15970   0.331E+00    0.244E+00
RMM:  53    -0.856142812211E+02   -0.15317E-02   -0.11502E+01 15695   0.340E+00    0.246E+00
RMM:  54    -0.856501041513E+02   -0.35823E-01   -0.11850E+01 13633   0.334E+00    0.263E+00
RMM:  55    -0.855882281896E+02    0.61876E-01   -0.11841E+01 12931   0.330E+00    0.216E+00
RMM:  56    -0.854829453564E+02    0.10528E+00   -0.11215E+01 12730   0.317E+00    0.226E+00
RMM:  57    -0.855395084121E+02   -0.56563E-01   -0.11096E+01 18250   0.400E+00    0.176E+00
RMM:  58    -0.855507966888E+02   -0.11288E-01   -0.86625E+00 18229   0.291E+00    0.219E+00
RMM:  59    -0.855345903722E+02    0.16206E-01   -0.11061E+01 16917   0.318E+00    0.213E+00
RMM:  60    -0.855437399504E+02   -0.91496E-02   -0.10739E+01 16186   0.304E+00
  13 F= -.85543740E+02 E0= -.85495556E+02  d E =-.590538E+00  mag=     4.9664
 curvature:  -0.30 expect dE=-0.197E+00 dE for cont linesearch -0.141E-02
 trial: gam= 0.65940 g(F)=  0.606E+00 g(S)=  0.395E-01 ort =-0.762E-01 (trialstep = 0.761E+00)
 search vector abs. value=  0.109E+01
 bond charge predicted
       N       E                     dE             d eps       ncg     rms          rms(c)
DAV:   1    -0.847527835144E+02    0.78181E+00   -0.16337E+02 17264   0.644E+01    0.336E+00
RMM:   2    -0.852574425238E+02   -0.50466E+00   -0.48576E+00 17392   0.136E+01    0.202E+00
RMM:   3    -0.852760719934E+02   -0.18629E-01   -0.50467E-01 18513   0.490E+00    0.164E+00
RMM:   4    -0.852695692532E+02    0.65027E-02   -0.14250E-01 19760   0.223E+00    0.126E+00
RMM:   5    -0.852779667461E+02   -0.83975E-02   -0.44476E-02 19136   0.123E+00    0.984E-01
RMM:   6    -0.852891110159E+02   -0.11144E-01   -0.14108E-02 18600   0.719E-01    0.942E-01
RMM:   7    -0.852996497884E+02   -0.10539E-01   -0.15288E-02 18138   0.711E-01    0.806E-01
RMM:   8    -0.853070054311E+02   -0.73556E-02   -0.72828E-02 17557   0.170E+00    0.447E-01
RMM:   9    -0.853772976831E+02   -0.70292E-01   -0.98392E-02 17474   0.101E+00    0.620E-01
RMM:  10    -0.856040734917E+02   -0.22678E+00   -0.17865E+00 17044   0.116E+00    0.136E+00
RMM:  11    -0.858559433390E+02   -0.25187E+00   -0.10992E+01 16847   0.363E+00    0.229E+00
RMM:  12    -0.860142565297E+02   -0.15831E+00   -0.12169E+01 16991   0.429E+00    0.309E+00
RMM:  13    -0.859892148107E+02    0.25042E-01   -0.17518E+01 16842   0.524E+00    0.311E+00
RMM:  14    -0.861226397511E+02   -0.13342E+00   -0.14999E+01 16475   0.445E+00    0.398E+00
RMM:  15    -0.858363616503E+02    0.28628E+00   -0.20849E+01 16975   0.558E+00    0.340E+00
RMM:  16    -0.858703895452E+02   -0.34028E-01   -0.16145E+01 13838   0.437E+00    0.320E+00
RMM:  17    -0.856483531488E+02    0.22204E+00   -0.16160E+01 14603   0.433E+00    0.292E+00
RMM:  18    -0.856464003675E+02    0.19528E-02   -0.12906E+01 14898   0.370E+00    0.252E+00
RMM:  19    -0.856742644578E+02   -0.27864E-01   -0.11933E+01 14961   0.345E+00    0.255E+00
RMM:  20    -0.856530004691E+02    0.21264E-01   -0.13205E+01 13318   0.359E+00    0.259E+00
RMM:  21    -0.857186326696E+02   -0.65632E-01   -0.13497E+01 13035   0.357E+00    0.234E+00
RMM:  22    -0.857187588810E+02   -0.12621E-03   -0.12401E+01 14190   0.354E+00    0.261E+00
RMM:  23    -0.856707744236E+02    0.47984E-01   -0.12831E+01 13274   0.359E+00    0.271E+00
RMM:  24    -0.856423052002E+02    0.28469E-01   -0.14403E+01 12663   0.373E+00    0.277E+00
RMM:  25    -0.857423098079E+02   -0.10000E+00   -0.11988E+01 11689   0.330E+00    0.288E+00
RMM:  26    -0.857443334796E+02   -0.20237E-02   -0.14217E+01 13642   0.391E+00    0.336E+00
RMM:  27    -0.856488220486E+02    0.95511E-01   -0.16155E+01 14350   0.426E+00    0.296E+00
RMM:  28    -0.856982198455E+02   -0.49398E-01   -0.14385E+01 14544   0.384E+00    0.278E+00
RMM:  29    -0.856978722778E+02    0.34757E-03   -0.13282E+01 13886   0.365E+00    0.292E+00
RMM:  30    -0.857331344496E+02   -0.35262E-01   -0.14499E+01 12868   0.387E+00    0.296E+00
RMM:  31    -0.856864648405E+02    0.46670E-01   -0.15305E+01 13701   0.415E+00    0.301E+00
RMM:  32    -0.856809889088E+02    0.54759E-02   -0.15070E+01 14024   0.397E+00    0.303E+00
RMM:  33    -0.856650196728E+02    0.15969E-01   -0.14559E+01 13923   0.397E+00    0.318E+00
RMM:  34    -0.857583692795E+02   -0.93350E-01   -0.14445E+01 13123   0.387E+00    0.301E+00
RMM:  35    -0.857421135224E+02    0.16256E-01   -0.13286E+01 12405   0.367E+00    0.322E+00
RMM:  36    -0.858303602048E+02   -0.88247E-01   -0.14145E+01 12554   0.384E+00    0.319E+00
RMM:  37    -0.856871715075E+02    0.14319E+00   -0.15314E+01 13905   0.416E+00    0.317E+00
RMM:  38    -0.857016231429E+02   -0.14452E-01   -0.15385E+01 13444   0.403E+00    0.324E+00
RMM:  39    -0.856690190718E+02    0.32604E-01   -0.14390E+01 13795   0.394E+00    0.305E+00
RMM:  40    -0.856957271926E+02   -0.26708E-01   -0.13734E+01 14164   0.374E+00    0.290E+00
RMM:  41    -0.855992990267E+02    0.96428E-01   -0.14727E+01 13409   0.383E+00    0.267E+00
RMM:  42    -0.856046301188E+02   -0.53311E-02   -0.13508E+01 14365   0.359E+00    0.263E+00
RMM:  43    -0.856448558920E+02   -0.40226E-01   -0.12650E+01 13820   0.339E+00    0.253E+00
RMM:  44    -0.857420809835E+02   -0.97225E-01   -0.11833E+01 13547   0.324E+00    0.281E+00
RMM:  45    -0.855886720366E+02    0.15341E+00   -0.14052E+01 14057   0.383E+00    0.228E+00
RMM:  46    -0.858203091603E+02   -0.23164E+00   -0.11424E+01 13045   0.312E+00    0.284E+00
RMM:  47    -0.856844113554E+02    0.13590E+00   -0.14647E+01 17996   0.429E+00    0.271E+00
RMM:  48    -0.857118557845E+02   -0.27444E-01   -0.13653E+01 16633   0.384E+00    0.286E+00
RMM:  49    -0.857408401863E+02   -0.28984E-01   -0.14707E+01 14870   0.396E+00    0.274E+00
RMM:  50    -0.857469208517E+02   -0.60807E-02   -0.13289E+01 13958   0.370E+00    0.262E+00
RMM:  51    -0.856869737643E+02    0.59947E-01   -0.13651E+01 14398   0.373E+00    0.247E+00
RMM:  52    -0.857093700739E+02   -0.22396E-01   -0.12550E+01 18620   0.431E+00    0.262E+00
RMM:  53    -0.856481086293E+02    0.61261E-01   -0.13409E+01 18918   0.399E+00    0.241E+00
RMM:  54    -0.857128603608E+02   -0.64752E-01   -0.11955E+01 18146   0.358E+00    0.256E+00
RMM:  55    -0.857067612537E+02    0.60991E-02   -0.12167E+01 14929   0.345E+00    0.269E+00
RMM:  56    -0.856532626245E+02    0.53499E-01   -0.13767E+01 14088   0.368E+00    0.265E+00
RMM:  57    -0.856198652361E+02    0.33397E-01   -0.13287E+01 18488   0.396E+00    0.278E+00
RMM:  58    -0.857344537744E+02   -0.11459E+00   -0.12286E+01 17928   0.356E+00    0.268E+00
RMM:  59    -0.857067178459E+02    0.27736E-01   -0.12709E+01 18540   0.386E+00    0.311E+00
RMM:  60    -0.857535248556E+02   -0.46807E-01   -0.14776E+01 16191   0.404E+00
  14 F= -.85753525E+02 E0= -.85699811E+02  d E =-.209785E+00  mag=     4.8676
 trial-energy change:   -0.209785  1 .order   -0.198798   -0.453319    0.055723
 step:   0.6778(harm=  0.6778)  dis= 0.04563  next Energy=   -85.745588 (dE=-0.202E+00)
 bond charge predicted
       N       E                     dE             d eps       ncg     rms          rms(c)
DAV:   1    -0.850912304612E+02    0.61549E+00   -0.20192E+01 16944   0.116E+01    0.161E+00
RMM:   2    -0.853704692614E+02   -0.27924E+00   -0.25201E-01 17136   0.326E+00    0.209E+00
RMM:   3    -0.853542870288E+02    0.16182E-01   -0.46052E-02 17059   0.145E+00    0.748E-01
RMM:   4    -0.853545127863E+02   -0.22576E-03   -0.10886E-02 18496   0.625E-01    0.393E-01
RMM:   5    -0.853557738866E+02   -0.12611E-02   -0.64622E-03 18919   0.457E-01    0.185E-01
RMM:   6    -0.853562071707E+02   -0.43328E-03   -0.86987E-04 15952   0.179E-01    0.719E-02
RMM:   7    -0.853563166541E+02   -0.10948E-03   -0.22105E-04 11061   0.954E-02    0.308E-02
RMM:   8    -0.853564567039E+02   -0.14005E-03   -0.80329E-05 10375   0.559E-02    0.255E-02
RMM:   9    -0.853578485670E+02   -0.13919E-02   -0.42311E-03 10371   0.407E-02    0.184E-02
RMM:  10    -0.853880074751E+02   -0.30159E-01   -0.91704E-02 10109   0.595E-02    0.251E-01
RMM:  11    -0.855831060982E+02   -0.19510E+00   -0.97879E-01 13084   0.467E-01    0.116E+00
RMM:  12    -0.859214355532E+02   -0.33833E+00   -0.66058E+00 15872   0.259E+00    0.217E+00
RMM:  13    -0.860931581977E+02   -0.17172E+00   -0.12416E+01 16828   0.454E+00    0.315E+00
RMM:  14    -0.860640751270E+02    0.29083E-01   -0.17628E+01 16713   0.550E+00    0.380E+00
RMM:  15    -0.859977783661E+02    0.66297E-01   -0.19404E+01 16995   0.554E+00    0.380E+00
RMM:  16    -0.858257761214E+02    0.17200E+00   -0.20341E+01 14913   0.522E+00    0.320E+00
RMM:  17    -0.857898827267E+02    0.35893E-01   -0.14045E+01 13943   0.400E+00    0.318E+00
RMM:  18    -0.856446987748E+02    0.14518E+00   -0.16278E+01 13865   0.428E+00    0.271E+00
RMM:  19    -0.857396636357E+02   -0.94965E-01   -0.13947E+01 14505   0.392E+00    0.258E+00
RMM:  20    -0.857805551764E+02   -0.40892E-01   -0.12745E+01 13495   0.351E+00    0.258E+00
RMM:  21    -0.857193169207E+02    0.61238E-01   -0.13619E+01 12821   0.361E+00    0.253E+00
RMM:  22    -0.857774279732E+02   -0.58111E-01   -0.12907E+01 12910   0.351E+00    0.266E+00
RMM:  23    -0.858159445505E+02   -0.38517E-01   -0.13534E+01 13104   0.374E+00    0.281E+00
RMM:  24    -0.858489436646E+02   -0.32999E-01   -0.14245E+01 13169   0.381E+00    0.299E+00
RMM:  25    -0.857851200785E+02    0.63824E-01   -0.13997E+01 14146   0.394E+00    0.309E+00
RMM:  26    -0.857163321441E+02    0.68788E-01   -0.15085E+01 13002   0.402E+00    0.303E+00
RMM:  27    -0.857822972887E+02   -0.65965E-01   -0.14329E+01 13760   0.388E+00    0.296E+00
RMM:  28    -0.857351809011E+02    0.47116E-01   -0.13910E+01 11003   0.376E+00    0.309E+00
RMM:  29    -0.857332612628E+02    0.19196E-02   -0.15106E+01 13194   0.400E+00    0.259E+00
RMM:  30    -0.857480441952E+02   -0.14783E-01   -0.13259E+01 13694   0.376E+00    0.313E+00
RMM:  31    -0.856662049067E+02    0.81839E-01   -0.15897E+01 11983   0.409E+00    0.265E+00
RMM:  32    -0.857401063363E+02   -0.73901E-01   -0.12327E+01 14149   0.346E+00    0.281E+00
RMM:  33    -0.856081791512E+02    0.13193E+00   -0.15269E+01 12330   0.398E+00    0.224E+00
RMM:  34    -0.856943002480E+02   -0.86121E-01   -0.10571E+01 15360   0.322E+00    0.241E+00
RMM:  35    -0.856343178145E+02    0.59982E-01   -0.12537E+01 12525   0.337E+00    0.231E+00
RMM:  36    -0.857422136161E+02   -0.10790E+00   -0.11349E+01 13006   0.309E+00    0.260E+00
RMM:  37    -0.857041567905E+02    0.38057E-01   -0.13585E+01 13927   0.375E+00    0.257E+00
RMM:  38    -0.856502459226E+02    0.53911E-01   -0.13200E+01 11797   0.343E+00    0.255E+00
RMM:  39    -0.856556405599E+02   -0.53946E-02   -0.13806E+01 11651   0.353E+00    0.246E+00
RMM:  40    -0.856960254518E+02   -0.40385E-01   -0.12649E+01 12909   0.339E+00    0.238E+00
RMM:  41    -0.857138949272E+02   -0.17869E-01   -0.10580E+01 13313   0.308E+00    0.244E+00
RMM:  42    -0.857691823295E+02   -0.55287E-01   -0.13160E+01 12735   0.350E+00    0.283E+00
RMM:  43    -0.857428455758E+02    0.26337E-01   -0.13737E+01 13708   0.371E+00    0.260E+00
RMM:  44    -0.856983813212E+02    0.44464E-01   -0.12171E+01 12549   0.337E+00    0.291E+00
RMM:  45    -0.856421335115E+02    0.56248E-01   -0.15156E+01 11924   0.389E+00    0.250E+00
RMM:  46    -0.856970835394E+02   -0.54950E-01   -0.12099E+01 13138   0.337E+00    0.243E+00
RMM:  47    -0.856578340171E+02    0.39250E-01   -0.11789E+01 13661   0.331E+00    0.258E+00
RMM:  48    -0.856745056910E+02   -0.16672E-01   -0.12695E+01 12917   0.345E+00    0.261E+00
RMM:  49    -0.856477241846E+02    0.26782E-01   -0.13229E+01 12154   0.349E+00    0.239E+00
RMM:  50    -0.857650785444E+02   -0.11735E+00   -0.10953E+01 13068   0.314E+00    0.274E+00
RMM:  51    -0.857205808970E+02    0.44498E-01   -0.12741E+01 13487   0.355E+00    0.247E+00
RMM:  52    -0.857859068752E+02   -0.65326E-01   -0.12296E+01 16483   0.347E+00    0.261E+00
RMM:  53    -0.857633064916E+02    0.22600E-01   -0.12791E+01 14447   0.362E+00    0.253E+00
RMM:  54    -0.857007713304E+02    0.62535E-01   -0.13185E+01 13309   0.360E+00    0.254E+00
RMM:  55    -0.857899851516E+02   -0.89214E-01   -0.11849E+01 12784   0.336E+00    0.264E+00
RMM:  56    -0.857013880876E+02    0.88597E-01   -0.13068E+01 12508   0.360E+00    0.270E+00
RMM:  57    -0.857544537426E+02   -0.53066E-01   -0.13131E+01 18987   0.399E+00    0.277E+00
RMM:  58    -0.856571289644E+02    0.97325E-01   -0.14615E+01 17874   0.407E+00    0.274E+00
RMM:  59    -0.857202008585E+02   -0.63072E-01   -0.12944E+01 16954   0.365E+00    0.276E+00
RMM:  60    -0.855875288283E+02    0.13267E+00   -0.14463E+01 16018   0.392E+00
  15 F= -.85587529E+02 E0= -.85531067E+02  d E =-.437889E-01  mag=     4.9585
 curvature:  -0.62 expect dE=-0.759E+00 dE for cont linesearch -0.312E-02
 trial: gam= 1.71557 g(F)=  0.565E+00 g(S)=  0.659E+00 ort =-0.740E-01 (trialstep = 0.194E+00)
 search vector abs. value=  0.418E+01
 bond charge predicted
       N       E                     dE             d eps       ncg     rms          rms(c)
DAV:   1    -0.852686897740E+02    0.45151E+00   -0.53863E+01 16128   0.325E+01    0.188E+00
RMM:   2    -0.855553467004E+02   -0.28666E+00   -0.13274E+00 17140   0.716E+00    0.160E+00
RMM:   3    -0.855563731198E+02   -0.10264E-02   -0.14010E-01 18341   0.243E+00    0.742E-01
RMM:   4    -0.855532512674E+02    0.31219E-02   -0.23930E-02 19090   0.946E-01    0.499E-01
RMM:   5    -0.855520693366E+02    0.11819E-02   -0.89023E-03 19404   0.532E-01    0.206E-01
RMM:   6    -0.855521764335E+02   -0.10710E-03   -0.35162E-03 18141   0.320E-01    0.848E-02
RMM:   7    -0.855522197742E+02   -0.43341E-04   -0.62474E-04 14675   0.145E-01
  16 F= -.85552220E+02 E0= -.85540698E+02  d E =0.353091E-01  mag=     5.0000
 trial-energy change:    0.035309  1 .order   -0.185256   -0.213049   -0.157463
 step:   0.7444(harm=  0.7444)  dis= 0.13322  next Energy=   -85.995818 (dE=-0.408E+00)
 bond charge predicted
       N       E                     dE             d eps       ncg     rms          rms(c)
DAV:   1    -0.847079812720E+02    0.84420E+00   -0.31812E+02 16128   0.821E+01    0.535E+00
RMM:   2    -0.859101158975E+02   -0.12021E+01   -0.13514E+01 17259   0.218E+01    0.477E+00
RMM:   3    -0.857090328603E+02    0.20108E+00   -0.12667E+00 18378   0.737E+00    0.153E+00
RMM:   4    -0.856675600887E+02    0.41473E-01   -0.15726E-01 18997   0.251E+00    0.964E-01
RMM:   5    -0.856558095532E+02    0.11751E-01   -0.53046E-02 19662   0.125E+00    0.466E-01
RMM:   6    -0.856552756788E+02    0.53387E-03   -0.22835E-02 18306   0.737E-01    0.157E-01
RMM:   7    -0.856552141994E+02    0.61479E-04   -0.31941E-03 17435   0.306E-01    0.874E-02
RMM:   8    -0.856558431834E+02   -0.62898E-03   -0.26732E-03 14779   0.164E-01    0.507E-02
RMM:   9    -0.856796811081E+02   -0.23838E-01   -0.15750E-02 12280   0.110E-01    0.216E-01
RMM:  10    -0.859097507349E+02   -0.23007E+00   -0.16552E+00 12963   0.560E-01    0.128E+00
RMM:  11    -0.863236429686E+02   -0.41389E+00   -0.11561E+01 15778   0.341E+00    0.230E+00
RMM:  12    -0.866204246210E+02   -0.29678E+00   -0.15106E+01 16230   0.503E+00    0.258E+00
RMM:  13    -0.864255901765E+02    0.19483E+00   -0.20079E+01 16612   0.534E+00    0.274E+00
RMM:  14    -0.863757030846E+02    0.49887E-01   -0.16826E+01 16309   0.442E+00    0.268E+00
RMM:  15    -0.861112824625E+02    0.26442E+00   -0.20005E+01 14069   0.462E+00    0.304E+00
RMM:  16    -0.863235077043E+02   -0.21223E+00   -0.16781E+01 15728   0.424E+00    0.272E+00
RMM:  17    -0.861829953053E+02    0.14051E+00   -0.19934E+01 15311   0.491E+00    0.246E+00
RMM:  18    -0.862985389590E+02   -0.11554E+00   -0.14509E+01 13695   0.376E+00    0.263E+00
RMM:  19    -0.862926891094E+02    0.58498E-02   -0.16681E+01 14446   0.423E+00    0.262E+00
RMM:  20    -0.863531746268E+02   -0.60486E-01   -0.14842E+01 11328   0.375E+00    0.289E+00
RMM:  21    -0.863108440926E+02    0.42331E-01   -0.19070E+01 13714   0.458E+00    0.277E+00
RMM:  22    -0.862363485350E+02    0.74496E-01   -0.16884E+01 13326   0.416E+00    0.227E+00
RMM:  23    -0.860661005932E+02    0.17025E+00   -0.15258E+01 14151   0.379E+00    0.221E+00
RMM:  24    -0.861377816263E+02   -0.71681E-01   -0.13151E+01 13898   0.342E+00    0.229E+00
RMM:  25    -0.861616429169E+02   -0.23861E-01   -0.15030E+01 11707   0.360E+00    0.254E+00
RMM:  26    -0.861572591800E+02    0.43837E-02   -0.16876E+01 13086   0.407E+00    0.261E+00
RMM:  27    -0.861969177749E+02   -0.39659E-01   -0.16044E+01 11853   0.391E+00    0.290E+00
RMM:  28    -0.862383452262E+02   -0.41427E-01   -0.16299E+01 13628   0.414E+00    0.280E+00
RMM:  29    -0.863152130970E+02   -0.76868E-01   -0.16805E+01 14174   0.421E+00    0.290E+00
RMM:  30    -0.863194662965E+02   -0.42532E-02   -0.17839E+01 13246   0.440E+00    0.290E+00
RMM:  31    -0.862423834287E+02    0.77083E-01   -0.18370E+01 12878   0.444E+00    0.305E+00
RMM:  32    -0.862339840977E+02    0.83993E-02   -0.19515E+01 11390   0.463E+00    0.339E+00
RMM:  33    -0.861643858203E+02    0.69598E-01   -0.18770E+01 14010   0.478E+00    0.326E+00
RMM:  34    -0.861382283910E+02    0.26157E-01   -0.18438E+01 13652   0.455E+00    0.295E+00
RMM:  35    -0.862019145446E+02   -0.63686E-01   -0.17408E+01 12210   0.426E+00    0.308E+00
RMM:  36    -0.862150126895E+02   -0.13098E-01   -0.18216E+01 11896   0.438E+00    0.295E+00
RMM:  37    -0.862216567883E+02   -0.66441E-02   -0.17214E+01 11797   0.420E+00    0.311E+00
RMM:  38    -0.862742179557E+02   -0.52561E-01   -0.16847E+01 11033   0.414E+00    0.313E+00
RMM:  39    -0.862199884282E+02    0.54230E-01   -0.18159E+01 12790   0.441E+00    0.367E+00
RMM:  40    -0.863395859420E+02   -0.11960E+00   -0.19098E+01 14153   0.484E+00    0.329E+00
RMM:  41    -0.862983919275E+02    0.41194E-01   -0.19856E+01 14345   0.489E+00    0.337E+00
RMM:  42    -0.862310326024E+02    0.67359E-01   -0.19443E+01 13061   0.476E+00    0.338E+00
RMM:  43    -0.861500964098E+02    0.80936E-01   -0.19641E+01 11986   0.471E+00    0.320E+00
RMM:  44    -0.862783392910E+02   -0.12824E+00   -0.16235E+01 12984   0.420E+00    0.305E+00
RMM:  45    -0.861045057899E+02    0.17383E+00   -0.18613E+01 12660   0.451E+00    0.297E+00
RMM:  46    -0.861722599671E+02   -0.67754E-01   -0.15838E+01 15199   0.415E+00    0.290E+00
RMM:  47    -0.861748280480E+02   -0.25681E-02   -0.16467E+01 13519   0.414E+00    0.357E+00
RMM:  48    -0.861814707436E+02   -0.66427E-02   -0.20305E+01 13004   0.483E+00    0.318E+00
RMM:  49    -0.861961074743E+02   -0.14637E-01   -0.17238E+01 11740   0.427E+00    0.373E+00
RMM:  50    -0.862337696730E+02   -0.37662E-01   -0.19190E+01 11746   0.463E+00    0.320E+00
RMM:  51    -0.862626662235E+02   -0.28897E-01   -0.19108E+01 14389   0.477E+00    0.347E+00
RMM:  52    -0.863022587208E+02   -0.39592E-01   -0.19160E+01 18810   0.508E+00    0.326E+00
RMM:  53    -0.862041630151E+02    0.98096E-01   -0.19045E+01 16972   0.490E+00    0.325E+00
RMM:  54    -0.862085152311E+02   -0.43522E-02   -0.17820E+01 17472   0.461E+00    0.313E+00
RMM:  55    -0.861941450258E+02    0.14370E-01   -0.17195E+01 16263   0.435E+00    0.315E+00
RMM:  56    -0.862211191292E+02   -0.26974E-01   -0.18757E+01 13145   0.454E+00    0.293E+00
RMM:  57    -0.862491995452E+02   -0.28080E-01   -0.16766E+01 18006   0.453E+00    0.287E+00
RMM:  58    -0.861348199196E+02    0.11438E+00   -0.19363E+01 16712   0.475E+00    0.275E+00
RMM:  59    -0.861105913368E+02    0.24229E-01   -0.14394E+01 15952   0.387E+00    0.288E+00
RMM:  60    -0.860863537744E+02    0.24238E-01   -0.17261E+01 13961   0.420E+00
  17 F= -.86086354E+02 E0= -.86041815E+02  d E =-.498825E+00  mag=     4.9130
 curvature:  -1.42 expect dE=-0.649E+00 dE for cont linesearch -0.136E+00
 ZBRENT: interpolating
 opt :   0.5034  next Energy=   -86.162533 (dE=-0.575E+00)
 bond charge predicted
       N       E                     dE             d eps       ncg     rms          rms(c)
DAV:   1    -0.853604438680E+02    0.75015E+00   -0.76446E+01 16128   0.401E+01    0.204E+00
RMM:   2    -0.857031917052E+02   -0.34275E+00   -0.18485E+00 17252   0.866E+00    0.162E+00
RMM:   3    -0.857049803875E+02   -0.17887E-02   -0.18085E-01 18776   0.257E+00    0.961E-01
RMM:   4    -0.856956438024E+02    0.93366E-02   -0.40339E-02 20247   0.114E+00    0.404E-01
RMM:   5    -0.856935184650E+02    0.21253E-02   -0.88350E-03 18007   0.527E-01    0.197E-01
RMM:   6    -0.856933803940E+02    0.13807E-03   -0.34630E-03 18068   0.274E-01    0.807E-02
RMM:   7    -0.856933728268E+02    0.75672E-05   -0.57392E-04 13826   0.155E-01
  18 F= -.85693373E+02 E0= -.85689099E+02  d E =-.105844E+00  mag=     5.0000
 curvature:  -0.80 expect dE=-0.162E+01 dE for cont linesearch -0.161E-02
 trial: gam= 0.84952 g(F)=  0.183E+00 g(S)=  0.185E+01 ort = 0.920E-01 (trialstep = 0.205E+00)
 search vector abs. value=  0.521E+01
 bond charge predicted
       N       E                     dE             d eps       ncg     rms          rms(c)
DAV:   1    -0.864205824920E+02   -0.72720E+00   -0.43769E+01 17656   0.397E+01    0.522E+00
RMM:   2    -0.861195812434E+02    0.30100E+00   -0.21831E+00 17772   0.882E+00    0.282E+00
RMM:   3    -0.860406599652E+02    0.78921E-01   -0.37325E-01 16769   0.421E+00    0.234E+00
RMM:   4    -0.859677799096E+02    0.72880E-01   -0.23416E-01 19831   0.257E+00    0.570E-01
RMM:   5    -0.859634810699E+02    0.42988E-02   -0.19355E-02 19155   0.854E-01    0.273E-01
RMM:   6    -0.859621487633E+02    0.13323E-02   -0.57598E-03 18436   0.408E-01    0.108E-01
RMM:   7    -0.859621526477E+02   -0.38844E-05   -0.18122E-03 17616   0.237E-01    0.712E-02
RMM:   8    -0.859620773664E+02    0.75281E-04   -0.22769E-04 11638   0.964E-02
  19 F= -.85962077E+02 E0= -.85960032E+02  d E =-.268705E+00  mag=     5.0000
 trial-energy change:   -0.268705  1 .order   -0.268306   -0.434381   -0.102230
 step:   0.2686(harm=  0.2686)  dis= 0.03935  next Energy=   -85.977411 (dE=-0.284E+00)
 bond charge predicted
       N       E                     dE             d eps       ncg     rms          rms(c)
DAV:   1    -0.860186130499E+02   -0.56460E-01   -0.41739E+00 18336   0.125E+01    0.159E+00
RMM:   2    -0.859909143228E+02    0.27699E-01   -0.19674E-01 17676   0.270E+00    0.878E-01
RMM:   3    -0.859833773416E+02    0.75370E-02   -0.34766E-02 16899   0.128E+00    0.719E-01
RMM:   4    -0.859763974274E+02    0.69799E-02   -0.22964E-02 19853   0.804E-01    0.161E-01
RMM:   5    -0.859760397924E+02    0.35764E-03   -0.18614E-03 17612   0.271E-01    0.807E-02
RMM:   6    -0.859759201678E+02    0.11962E-03   -0.53753E-04 14052   0.136E-01    0.342E-02
RMM:   7    -0.859759280768E+02   -0.79090E-05   -0.20019E-04 10811   0.878E-02
  20 F= -.85975928E+02 E0= -.85974320E+02  d E =-.282555E+00  mag=     5.0000
 curvature:  -0.33 expect dE=-0.266E+00 dE for cont linesearch -0.380E-04
 trial: gam= 0.21217 g(F)=  0.710E+00 g(S)=  0.949E-01 ort =-0.245E-01 (trialstep = 0.218E+00)
 search vector abs. value=  0.103E+01
 bond charge predicted
       N       E                     dE             d eps       ncg     rms          rms(c)
DAV:   1    -0.861470362052E+02   -0.17112E+00   -0.10977E+01 16632   0.177E+01    0.174E+00
RMM:   2    -0.861278425604E+02    0.19194E-01   -0.46034E-01 17113   0.457E+00    0.103E+00
RMM:   3    -0.861311510973E+02   -0.33085E-02   -0.99850E-02 18896   0.171E+00    0.854E-01
RMM:   4    -0.861182213059E+02    0.12930E-01   -0.19869E-02 17401   0.947E-01    0.248E-01
RMM:   5    -0.861175101160E+02    0.71119E-03   -0.42462E-03 19268   0.338E-01    0.138E-01
RMM:   6    -0.861172545250E+02    0.25559E-03   -0.11097E-03 15544   0.185E-01    0.620E-02
RMM:   7    -0.861172425825E+02    0.11942E-04   -0.37767E-04 12700   0.115E-01
  21 F= -.86117243E+02 E0= -.86115168E+02  d E =-.141315E+00  mag=     5.0000
 trial-energy change:   -0.141315  1 .order   -0.142864   -0.174318   -0.111410
 step:   0.6042(harm=  0.6042)  dis= 0.04880  next Energy=   -86.217445 (dE=-0.242E+00)
 bond charge predicted
       N       E                     dE             d eps       ncg     rms          rms(c)
DAV:   1    -0.863075327630E+02   -0.19028E+00   -0.34411E+01 16432   0.314E+01    0.312E+00
RMM:   2    -0.862472924556E+02    0.60240E-01   -0.14791E+00 17135   0.808E+00    0.181E+00
RMM:   3    -0.862602370020E+02   -0.12945E-01   -0.31804E-01 18948   0.308E+00    0.157E+00
RMM:   4    -0.862184630486E+02    0.41774E-01   -0.62434E-02 17365   0.167E+00    0.461E-01
RMM:   5    -0.862161735096E+02    0.22895E-02   -0.13454E-02 19977   0.609E-01    0.254E-01
RMM:   6    -0.862153847652E+02    0.78874E-03   -0.35866E-03 17978   0.311E-01    0.119E-01
RMM:   7    -0.862153603897E+02    0.24376E-04   -0.11152E-03 15476   0.192E-01    0.583E-02
RMM:   8    -0.862153318938E+02    0.28496E-04   -0.16069E-04 11117   0.879E-02
  22 F= -.86215332E+02 E0= -.86211342E+02  d E =-.239404E+00  mag=     5.0000
 curvature:  -0.39 expect dE=-0.925E-01 dE for cont linesearch -0.147E-03
 trial: gam= 0.25093 g(F)=  0.162E+00 g(S)=  0.760E-01 ort = 0.197E-01 (trialstep = 0.295E+00)
 search vector abs. value=  0.313E+00
 bond charge predicted
       N       E                     dE             d eps       ncg     rms          rms(c)
DAV:   1    -0.862465857406E+02   -0.31225E-01   -0.53073E+00 17296   0.117E+01    0.887E-01
RMM:   2    -0.862678711764E+02   -0.21285E-01   -0.21608E-01 16945   0.315E+00    0.105E+00
RMM:   3    -0.862579128199E+02    0.99584E-02   -0.27375E-02 18862   0.974E-01    0.369E-01
RMM:   4    -0.862560128351E+02    0.19000E-02   -0.54195E-03 18859   0.466E-01    0.165E-01
RMM:   5    -0.862557218016E+02    0.29103E-03   -0.19483E-03 18379   0.236E-01    0.578E-02
RMM:   6    -0.862556893321E+02    0.32470E-04   -0.27338E-04 12067   0.106E-01
  23 F= -.86255689E+02 E0= -.86251556E+02  d E =-.403574E-01  mag=     5.0000
 trial-energy change:   -0.040357  1 .order   -0.040789   -0.071734   -0.009845
 step:   0.3447(harm=  0.3423)  dis= 0.01379  next Energy=   -86.256511 (dE=-0.412E-01)
 bond charge predicted
       N       E                     dE             d eps       ncg     rms          rms(c)
DAV:   1    -0.862561846121E+02   -0.46281E-03   -0.14747E-01 17792   0.195E+00    0.151E-01
RMM:   2    -0.862567757667E+02   -0.59115E-03   -0.60653E-03 16815   0.534E-01    0.173E-01
RMM:   3    -0.862565200778E+02    0.25569E-03   -0.71437E-04 14949   0.164E-01    0.635E-02
RMM:   4    -0.862564696891E+02    0.50389E-04   -0.11732E-04  9908   0.799E-02
  24 F= -.86256470E+02 E0= -.86252326E+02  d E =-.411378E-01  mag=     5.0000
 curvature:  -0.22 expect dE=-0.149E-01 dE for cont linesearch -0.782E-11
 trial: gam= 0.29974 g(F)=  0.646E-01 g(S)=  0.322E-02 ort =-0.334E-05 (trialstep = 0.305E+00)
 search vector abs. value=  0.959E-01
 bond charge predicted
       N       E                     dE             d eps       ncg     rms          rms(c)
DAV:   1    -0.862680970689E+02   -0.11577E-01   -0.21805E+00 16296   0.680E+00    0.316E-01
RMM:   2    -0.862741666547E+02   -0.60696E-02   -0.67784E-02 17386   0.158E+00    0.187E-01
RMM:   3    -0.862741190318E+02    0.47623E-04   -0.62075E-03 18903   0.502E-01    0.120E-01
RMM:   4    -0.862738914215E+02    0.22761E-03   -0.87774E-04 15027   0.178E-01    0.802E-02
RMM:   5    -0.862737984741E+02    0.92947E-04   -0.28750E-04 11534   0.987E-02
  25 F= -.86273798E+02 E0= -.86270064E+02  d E =-.173288E-01  mag=     5.0000
 trial-energy change:   -0.017329  1 .order   -0.017607   -0.020681   -0.014534
 step:   1.0268(harm=  1.0268)  dis= 0.03654  next Energy=   -86.291261 (dE=-0.348E-01)
 bond charge predicted
       N       E                     dE             d eps       ncg     rms          rms(c)
DAV:   1    -0.862553484163E+02    0.18543E-01   -0.12127E+01 16192   0.160E+01    0.744E-01
RMM:   2    -0.862898123639E+02   -0.34464E-01   -0.38219E-01 17265   0.374E+00    0.450E-01
RMM:   3    -0.862894252011E+02    0.38716E-03   -0.34356E-02 19294   0.118E+00    0.281E-01
RMM:   4    -0.862882187428E+02    0.12065E-02   -0.50957E-03 18055   0.413E-01    0.190E-01
RMM:   5    -0.862876996963E+02    0.51905E-03   -0.16892E-03 16560   0.208E-01    0.103E-01
RMM:   6    -0.862875607388E+02    0.13896E-03   -0.62132E-04 14825   0.126E-01    0.264E-02
RMM:   7    -0.862875557636E+02    0.49752E-05   -0.10893E-04 10635   0.732E-02
  26 F= -.86287556E+02 E0= -.86284707E+02  d E =-.310861E-01  mag=     5.0000
 curvature:  -0.73 expect dE=-0.543E-01 dE for cont linesearch -0.245E-03
 trial: gam= 1.17342 g(F)=  0.451E-01 g(S)=  0.296E-01 ort =-0.569E-02 (trialstep = 0.223E+00)
 search vector abs. value=  0.193E+00
 bond charge predicted
       N       E                     dE             d eps       ncg     rms          rms(c)
DAV:   1    -0.862995189445E+02   -0.11958E-01   -0.18701E+00 16264   0.681E+00    0.588E-01
RMM:   2    -0.863011827734E+02   -0.16638E-02   -0.60048E-02 17831   0.144E+00    0.375E-01
RMM:   3    -0.863001911437E+02    0.99163E-03   -0.59956E-03 17376   0.513E-01    0.276E-01
RMM:   4    -0.862990976605E+02    0.10935E-02   -0.25479E-03 18583   0.277E-01    0.907E-02
RMM:   5    -0.862990227853E+02    0.74875E-04   -0.44906E-04 14181   0.132E-01
  27 F= -.86299023E+02 E0= -.86296238E+02  d E =-.114670E-01  mag=     5.0000
 trial-energy change:   -0.011467  1 .order   -0.011805   -0.015162   -0.008449
 step:   0.5033(harm=  0.5033)  dis= 0.02187  next Energy=   -86.304677 (dE=-0.171E-01)
 bond charge predicted
       N       E                     dE             d eps       ncg     rms          rms(c)
DAV:   1    -0.863045644586E+02   -0.54668E-02   -0.29581E+00 16440   0.855E+00    0.737E-01
RMM:   2    -0.863071659198E+02   -0.26015E-02   -0.94564E-02 17885   0.180E+00    0.469E-01
RMM:   3    -0.863055925558E+02    0.15734E-02   -0.97111E-03 17597   0.645E-01    0.347E-01
RMM:   4    -0.863038264116E+02    0.17661E-02   -0.40793E-03 19260   0.352E-01    0.115E-01
RMM:   5    -0.863037167891E+02    0.10962E-03   -0.70486E-04 16053   0.156E-01    0.467E-02
RMM:   6    -0.863037019185E+02    0.14871E-04   -0.11258E-04 10478   0.741E-02
  28 F= -.86303702E+02 E0= -.86300985E+02  d E =-.161462E-01  mag=     5.0000
 curvature:  -0.72 expect dE=-0.149E-01 dE for cont linesearch -0.634E-05
 trial: gam= 0.16556 g(F)=  0.200E-01 g(S)=  0.817E-03 ort =-0.131E-02 (trialstep = 0.279E+00)
 search vector abs. value=  0.257E-01
 bond charge predicted
       N       E                     dE             d eps       ncg     rms          rms(c)
DAV:   1    -0.863078165157E+02   -0.40997E-02   -0.35074E-01 17368   0.266E+00    0.188E-01
RMM:   2    -0.863087224108E+02   -0.90590E-03   -0.97917E-03 17080   0.617E-01    0.167E-01
RMM:   3    -0.863086566425E+02    0.65768E-04   -0.12236E-03 16681   0.206E-01    0.844E-02
RMM:   4    -0.863085386560E+02    0.11799E-03   -0.18515E-04 11056   0.907E-02    0.444E-02
RMM:   5    -0.863085138866E+02    0.24769E-04   -0.13895E-04 10458   0.679E-02
  29 F= -.86308514E+02 E0= -.86305461E+02  d E =-.481197E-02  mag=     5.0000
 trial-energy change:   -0.004812  1 .order   -0.004942   -0.005748   -0.004135
 step:   0.9939(harm=  0.9939)  dis= 0.01576  next Energy=   -86.313944 (dE=-0.102E-01)
 bond charge predicted
       N       E                     dE             d eps       ncg     rms          rms(c)
DAV:   1    -0.863080807175E+02    0.45794E-03   -0.22996E+00 17064   0.681E+00    0.482E-01
RMM:   2    -0.863143678328E+02   -0.62871E-02   -0.66206E-02 17288   0.160E+00    0.435E-01
RMM:   3    -0.863139235311E+02    0.44430E-03   -0.83286E-03 19432   0.532E-01    0.218E-01
RMM:   4    -0.863132008950E+02    0.72264E-03   -0.12644E-03 16706   0.208E-01    0.114E-01
RMM:   5    -0.863130245350E+02    0.17636E-03   -0.80729E-04 15768   0.139E-01    0.344E-02
RMM:   6    -0.863130428603E+02   -0.18325E-04   -0.11345E-04 10555   0.819E-02
  30 F= -.86313043E+02 E0= -.86309012E+02  d E =-.934094E-02  mag=     5.0000
 curvature:  -0.62 expect dE=-0.222E-01 dE for cont linesearch -0.214E-04
 trial: gam= 1.75496 g(F)=  0.232E-01 g(S)=  0.126E-01 ort =-0.941E-03 (trialstep = 0.971E-01)
 search vector abs. value=  0.112E+00
 bond charge predicted
       N       E                     dE             d eps       ncg     rms          rms(c)
DAV:   1    -0.863156700693E+02   -0.26455E-02   -0.22182E-01 16208   0.223E+00    0.139E-01
RMM:   2    -0.863161166201E+02   -0.44655E-03   -0.67912E-03 17119   0.498E-01    0.715E-02
RMM:   3    -0.863161229719E+02   -0.63519E-05   -0.67885E-04 15168   0.172E-01
  31 F= -.86316123E+02 E0= -.86312148E+02  d E =-.308011E-02  mag=     5.0000
 ZBRENT: can't locate minimum, use default step
 trial-energy change:   -0.003080  1 .order   -0.003073   -0.003318   -0.002827
 step:   0.3883(harm=  0.6565)  dis= 0.00727  next Energy=   -86.324261 (dE=-0.112E-01)
 bond charge predicted
       N       E                     dE             d eps       ncg     rms          rms(c)
DAV:   1    -0.863192979758E+02   -0.31814E-02   -0.20002E+00 16192   0.666E+00    0.427E-01
RMM:   2    -0.863232020995E+02   -0.39041E-02   -0.62052E-02 17479   0.150E+00    0.212E-01
RMM:   3    -0.863228287570E+02    0.37334E-03   -0.59660E-03 18870   0.500E-01    0.137E-01
RMM:   4    -0.863227146344E+02    0.11412E-03   -0.10608E-03 15815   0.202E-01    0.923E-02
RMM:   5    -0.863225985803E+02    0.11605E-03   -0.33629E-04 12023   0.106E-01    0.418E-02
RMM:   6    -0.863225940904E+02    0.44900E-05   -0.91581E-05 10517   0.678E-02
  32 F= -.86322594E+02 E0= -.86318601E+02  d E =-.955123E-02  mag=     5.0000
 curvature:  -0.83 expect dE=-0.126E-01 dE for cont linesearch -0.213E-02
 ZBRENT: increasing intervall
 opt :   0.9708  next Energy=   -86.325399 (dE=-0.124E-01)
 bond charge predicted
       N       E                     dE             d eps       ncg     rms          rms(c)
DAV:   1    -0.863104544466E+02    0.12144E-01   -0.79998E+00 16888   0.133E+01    0.841E-01
RMM:   2    -0.863262503848E+02   -0.15796E-01   -0.24844E-01 17279   0.299E+00    0.429E-01
RMM:   3    -0.863261449617E+02    0.10542E-03   -0.25637E-02 19087   0.102E+00    0.353E-01
RMM:   4    -0.863244982630E+02    0.16467E-02   -0.44848E-03 17787   0.419E-01    0.172E-01
RMM:   5    -0.863241063800E+02    0.39188E-03   -0.13669E-03 16424   0.194E-01    0.747E-02
RMM:   6    -0.863240875149E+02    0.18865E-04   -0.32280E-04 12281   0.110E-01
  33 F= -.86324088E+02 E0= -.86320235E+02  d E =-.110447E-01  mag=     5.0000
 curvature:  -1.09 expect dE=-0.242E-01 dE for cont linesearch -0.656E-03
 trial: gam= 0.00000 g(F)=  0.171E-01 g(S)=  0.511E-02 ort =-0.820E-02 (trialstep = 0.272E+00)
 search vector abs. value=  0.222E-01
 bond charge predicted
       N       E                     dE             d eps       ncg     rms          rms(c)
DAV:   1    -0.863295804291E+02   -0.54740E-02   -0.37571E-01 17792   0.336E+00    0.293E-01
RMM:   2    -0.863290385440E+02    0.54189E-03   -0.13353E-02 16821   0.763E-01    0.161E-01
RMM:   3    -0.863291144870E+02   -0.75943E-04   -0.28630E-03 18016   0.322E-01    0.150E-01
RMM:   4    -0.863287545670E+02    0.35992E-03   -0.59795E-04 14539   0.171E-01    0.423E-02
RMM:   5    -0.863287351930E+02    0.19374E-04   -0.14121E-04 10450   0.723E-02
  34 F= -.86328735E+02 E0= -.86325046E+02  d E =-.464768E-02  mag=     5.0000
 trial-energy change:   -0.004648  1 .order   -0.004656   -0.006038   -0.003274
 step:   0.5938(harm=  0.5938)  dis= 0.00546  next Energy=   -86.330682 (dE=-0.659E-02)
 bond charge predicted
       N       E                     dE             d eps       ncg     rms          rms(c)
DAV:   1    -0.863318182639E+02   -0.30637E-02   -0.52521E-01 17720   0.396E+00    0.349E-01
RMM:   2    -0.863310268490E+02    0.79141E-03   -0.18690E-02 16871   0.901E-01    0.184E-01
RMM:   3    -0.863310552214E+02   -0.28372E-04   -0.40044E-03 18298   0.382E-01    0.164E-01
RMM:   4    -0.863306397275E+02    0.41549E-03   -0.81137E-04 15946   0.196E-01    0.551E-02
RMM:   5    -0.863306041043E+02    0.35623E-04   -0.18184E-04 10803   0.829E-02
  35 F= -.86330604E+02 E0= -.86327145E+02  d E =-.651659E-02  mag=     5.0000
 curvature:  -0.30 expect dE=-0.170E-02 dE for cont linesearch -0.388E-06
 trial: gam= 0.26525 g(F)=  0.321E-02 g(S)=  0.252E-02 ort =-0.170E-03 (trialstep = 0.336E+00)
 search vector abs. value=  0.719E-02
 bond charge predicted
       N       E                     dE             d eps       ncg     rms          rms(c)
DAV:   1    -0.863313019574E+02   -0.66223E-03   -0.17492E-01 17240   0.218E+00    0.184E-01
RMM:   2    -0.863319002696E+02   -0.59831E-03   -0.75717E-03 17342   0.569E-01    0.192E-01
RMM:   3    -0.863315121310E+02    0.38814E-03   -0.76908E-04 14689   0.172E-01    0.678E-02
RMM:   4    -0.863314636299E+02    0.48501E-04   -0.19715E-04 10561   0.928E-02
  36 F= -.86331464E+02 E0= -.86328260E+02  d E =-.859526E-03  mag=     5.0000
 trial-energy change:   -0.000860  1 .order   -0.000955   -0.001908   -0.000001
 step:   0.3364(harm=  0.3364)  dis= 0.00209  next Energy=   -86.331559 (dE=-0.955E-03)
 bond charge predicted
       N       E                     dE             d eps       ncg     rms          rms(c)
DAV:   1    -0.863314589166E+02    0.53214E-04   -0.68229E-05 12656   0.908E-02    0.127E-02
RMM:   2    -0.863314625782E+02   -0.36616E-05   -0.27526E-05  8280   0.380E-02
  37 F= -.86331463E+02 E0= -.86328276E+02  d E =-.858474E-03  mag=     5.0000
 curvature:  -0.21 expect dE=-0.266E-03 dE for cont linesearch -0.420E-06
 trial: gam= 0.21991 g(F)=  0.114E-02 g(S)=  0.105E-03 ort =-0.119E-03 (trialstep = 0.336E+00)
 search vector abs. value=  0.154E-02
 reached required accuracy - stopping structural energy minimisation
