  16  16   1   0
  0.1503998E+02  0.5745000E-09  0.5745000E-09  0.7291000E-09  0.5000000E-15
  1.000000000000000E-004
  CAR 
 unknown system                          
     25.07869988    -13.24452562  301     10.65642246      1.00000000
    -13.245  0.0000E+00  0.0000E+00  0.0000E+00  0.0000E+00
    -13.117  0.0000E+00  0.0000E+00  0.0000E+00  0.0000E+00
    -12.989  0.0000E+00  0.0000E+00  0.0000E+00  0.0000E+00
    -12.861  0.0000E+00  0.0000E+00  0.0000E+00  0.0000E+00
    -12.734  0.0000E+00  0.0000E+00  0.0000E+00  0.0000E+00
    -12.606  0.0000E+00  0.0000E+00  0.0000E+00  0.0000E+00
    -12.478  0.0000E+00  0.0000E+00  0.0000E+00  0.0000E+00
    -12.350  0.4358E-15  0.4346E-15  0.5568E-16  0.5552E-16
    -12.223  0.4614E-12  0.4603E-12  0.5900E-13  0.5885E-13
    -12.095  0.2203E-09  0.2198E-09  0.2819E-10  0.2813E-10
    -11.967  0.4781E-07  0.4772E-07  0.6135E-08  0.6124E-08
    -11.839  0.4744E-05  0.4737E-05  0.6122E-06  0.6113E-06
    -11.712  0.2167E-03  0.2164E-03  0.2829E-04  0.2826E-04
    -11.584  0.4589E-02  0.4586E-02  0.6145E-03  0.6141E-03
    -11.456  0.4547E-01  0.4546E-01  0.6423E-02  0.6421E-02
    -11.328  0.2126E+00  0.2126E+00  0.3358E-01  0.3358E-01
    -11.201  0.4728E+00  0.4728E+00  0.9398E-01  0.9398E-01
    -11.073  0.5029E+00  0.5029E+00  0.1582E+00  0.1582E+00
    -10.945  0.2566E+00  0.2565E+00  0.1910E+00  0.1910E+00
    -10.817  0.6275E-01  0.6271E-01  0.1990E+00  0.1990E+00
    -10.690  0.7331E-02  0.7321E-02  0.1999E+00  0.1999E+00
    -10.562  0.4069E-03  0.4060E-03  0.2000E+00  0.2000E+00
    -10.434  0.1065E-04  0.1062E-04  0.2000E+00  0.2000E+00
    -10.306  0.1306E-06  0.1300E-06  0.2000E+00  0.2000E+00
    -10.179  0.7442E-09  0.7394E-09  0.2000E+00  0.2000E+00
    -10.051  0.1956E-11  0.1940E-11  0.2000E+00  0.2000E+00
     -9.923  0.2350E-14  0.2325E-14  0.2000E+00  0.2000E+00
     -9.795  0.0000E+00  0.0000E+00  0.2000E+00  0.2000E+00
     -9.668  0.0000E+00  0.0000E+00  0.2000E+00  0.2000E+00
     -9.540  0.0000E+00  0.0000E+00  0.2000E+00  0.2000E+00
     -9.412  0.0000E+00  0.0000E+00  0.2000E+00  0.2000E+00
     -9.284  0.0000E+00  0.0000E+00  0.2000E+00  0.2000E+00
     -9.157  0.0000E+00  0.0000E+00  0.2000E+00  0.2000E+00
     -9.029  0.0000E+00  0.0000E+00  0.2000E+00  0.2000E+00
     -8.901  0.0000E+00  0.0000E+00  0.2000E+00  0.2000E+00
     -8.773  0.0000E+00  0.0000E+00  0.2000E+00  0.2000E+00
     -8.646  0.0000E+00  0.0000E+00  0.2000E+00  0.2000E+00
     -8.518  0.0000E+00  0.0000E+00  0.2000E+00  0.2000E+00
     -8.390  0.0000E+00  0.0000E+00  0.2000E+00  0.2000E+00
     -8.263  0.0000E+00  0.0000E+00  0.2000E+00  0.2000E+00
     -8.135  0.0000E+00  0.0000E+00  0.2000E+00  0.2000E+00
     -8.007  0.0000E+00  0.0000E+00  0.2000E+00  0.2000E+00
     -7.879  0.0000E+00  0.0000E+00  0.2000E+00  0.2000E+00
     -7.752  0.0000E+00  0.0000E+00  0.2000E+00  0.2000E+00
     -7.624  0.0000E+00  0.0000E+00  0.2000E+00  0.2000E+00
     -7.496  0.0000E+00  0.0000E+00  0.2000E+00  0.2000E+00
     -7.368  0.0000E+00  0.0000E+00  0.2000E+00  0.2000E+00
     -7.241  0.0000E+00  0.0000E+00  0.2000E+00  0.2000E+00
     -7.113  0.0000E+00  0.0000E+00  0.2000E+00  0.2000E+00
     -6.985  0.0000E+00  0.0000E+00  0.2000E+00  0.2000E+00
     -6.857  0.0000E+00  0.0000E+00  0.2000E+00  0.2000E+00
     -6.730  0.0000E+00  0.0000E+00  0.2000E+00  0.2000E+00
     -6.602  0.0000E+00  0.0000E+00  0.2000E+00  0.2000E+00
     -6.474  0.0000E+00  0.0000E+00  0.2000E+00  0.2000E+00
     -6.346  0.0000E+00  0.0000E+00  0.2000E+00  0.2000E+00
     -6.219  0.0000E+00  0.0000E+00  0.2000E+00  0.2000E+00
     -6.091  0.0000E+00  0.0000E+00  0.2000E+00  0.2000E+00
     -5.963  0.0000E+00  0.0000E+00  0.2000E+00  0.2000E+00
     -5.835  0.0000E+00  0.0000E+00  0.2000E+00  0.2000E+00
     -5.708  0.0000E+00  0.0000E+00  0.2000E+00  0.2000E+00
     -5.580  0.0000E+00  0.0000E+00  0.2000E+00  0.2000E+00
     -5.452  0.0000E+00  0.0000E+00  0.2000E+00  0.2000E+00
     -5.324  0.0000E+00  0.0000E+00  0.2000E+00  0.2000E+00
     -5.197  0.0000E+00  0.0000E+00  0.2000E+00  0.2000E+00
     -5.069  0.0000E+00  0.0000E+00  0.2000E+00  0.2000E+00
     -4.941  0.0000E+00  0.0000E+00  0.2000E+00  0.2000E+00
     -4.813  0.0000E+00  0.0000E+00  0.2000E+00  0.2000E+00
     -4.686  0.0000E+00  0.0000E+00  0.2000E+00  0.2000E+00
     -4.558  0.0000E+00  0.0000E+00  0.2000E+00  0.2000E+00
     -4.430  0.0000E+00  0.0000E+00  0.2000E+00  0.2000E+00
     -4.302  0.0000E+00  0.0000E+00  0.2000E+00  0.2000E+00
     -4.175  0.0000E+00  0.0000E+00  0.2000E+00  0.2000E+00
     -4.047  0.0000E+00  0.0000E+00  0.2000E+00  0.2000E+00
     -3.919  0.0000E+00  0.0000E+00  0.2000E+00  0.2000E+00
     -3.791  0.0000E+00  0.0000E+00  0.2000E+00  0.2000E+00
     -3.664  0.0000E+00  0.0000E+00  0.2000E+00  0.2000E+00
     -3.536  0.0000E+00  0.0000E+00  0.2000E+00  0.2000E+00
     -3.408  0.0000E+00  0.0000E+00  0.2000E+00  0.2000E+00
     -3.280  0.0000E+00  0.0000E+00  0.2000E+00  0.2000E+00
     -3.153  0.0000E+00  0.0000E+00  0.2000E+00  0.2000E+00
     -3.025  0.0000E+00  0.0000E+00  0.2000E+00  0.2000E+00
     -2.897  0.0000E+00  0.0000E+00  0.2000E+00  0.2000E+00
     -2.770  0.0000E+00  0.0000E+00  0.2000E+00  0.2000E+00
     -2.642  0.0000E+00  0.0000E+00  0.2000E+00  0.2000E+00
     -2.514  0.0000E+00  0.0000E+00  0.2000E+00  0.2000E+00
     -2.386  0.0000E+00  0.0000E+00  0.2000E+00  0.2000E+00
     -2.259  0.0000E+00  0.0000E+00  0.2000E+00  0.2000E+00
     -2.131  0.0000E+00  0.0000E+00  0.2000E+00  0.2000E+00
     -2.003  0.0000E+00  0.0000E+00  0.2000E+00  0.2000E+00
     -1.875  0.5303E-17  0.5126E-17  0.2000E+00  0.2000E+00
     -1.748  0.3805E-14  0.3690E-14  0.2000E+00  0.2000E+00
     -1.620  0.1241E-11  0.1208E-11  0.2000E+00  0.2000E+00
     -1.492  0.1859E-09  0.1817E-09  0.2000E+00  0.2000E+00
     -1.364  0.1308E-07  0.1283E-07  0.2000E+00  0.2000E+00
     -1.237  0.4471E-06  0.4401E-06  0.2000E+00  0.2000E+00
     -1.109  0.7782E-05  0.7684E-05  0.2000E+00  0.2000E+00
     -0.981  0.7297E-04  0.7228E-04  0.2000E+00  0.2000E+00
     -0.853  0.3891E-03  0.3864E-03  0.2001E+00  0.2001E+00
     -0.726  0.1232E-02  0.1227E-02  0.2002E+00  0.2002E+00
     -0.598  0.2445E-02  0.2439E-02  0.2005E+00  0.2005E+00
     -0.470  0.3489E-02  0.3485E-02  0.2010E+00  0.2010E+00
     -0.342  0.4640E-02  0.4634E-02  0.2016E+00  0.2016E+00
     -0.215  0.5980E-02  0.5976E-02  0.2023E+00  0.2023E+00
     -0.087  0.6430E-02  0.6431E-02  0.2032E+00  0.2032E+00
      0.041  0.7031E-02  0.7027E-02  0.2041E+00  0.2040E+00
      0.169  0.8845E-02  0.8838E-02  0.2052E+00  0.2052E+00
      0.296  0.1015E-01  0.1014E-01  0.2065E+00  0.2065E+00
      0.424  0.1108E-01  0.1108E-01  0.2079E+00  0.2079E+00
      0.552  0.1261E-01  0.1260E-01  0.2095E+00  0.2095E+00
      0.680  0.1486E-01  0.1485E-01  0.2114E+00  0.2114E+00
      0.807  0.1878E-01  0.1876E-01  0.2138E+00  0.2138E+00
      0.935  0.2365E-01  0.2363E-01  0.2168E+00  0.2168E+00
      1.063  0.3048E-01  0.3046E-01  0.2207E+00  0.2207E+00
      1.191  0.4042E-01  0.4038E-01  0.2259E+00  0.2259E+00
      1.318  0.4590E-01  0.4589E-01  0.2317E+00  0.2317E+00
      1.446  0.3778E-01  0.3782E-01  0.2366E+00  0.2366E+00
      1.574  0.1987E-01  0.1993E-01  0.2391E+00  0.2391E+00
      1.702  0.5972E-02  0.6009E-02  0.2399E+00  0.2399E+00
      1.829  0.9461E-03  0.9551E-03  0.2400E+00  0.2400E+00
      1.957  0.7505E-04  0.7603E-04  0.2400E+00  0.2400E+00
      2.085  0.2888E-05  0.2936E-05  0.2400E+00  0.2400E+00
      2.213  0.5276E-07  0.5386E-07  0.2400E+00  0.2400E+00
      2.340  0.4509E-09  0.4622E-09  0.2400E+00  0.2400E+00
      2.468  0.1785E-11  0.1836E-11  0.2400E+00  0.2400E+00
      2.596  0.6486E-12  0.6397E-12  0.2400E+00  0.2400E+00
      2.723  0.1182E-09  0.1167E-09  0.2400E+00  0.2400E+00
      2.851  0.1017E-07  0.1006E-07  0.2400E+00  0.2400E+00
      2.979  0.4217E-06  0.4178E-06  0.2400E+00  0.2400E+00
      3.107  0.8694E-05  0.8628E-05  0.2400E+00  0.2400E+00
      3.234  0.9287E-04  0.9230E-04  0.2400E+00  0.2400E+00
      3.362  0.5385E-03  0.5360E-03  0.2401E+00  0.2401E+00
      3.490  0.1799E-02  0.1793E-02  0.2403E+00  0.2403E+00
      3.618  0.3884E-02  0.3872E-02  0.2408E+00  0.2408E+00
      3.745  0.7004E-02  0.6970E-02  0.2417E+00  0.2417E+00
      3.873  0.1370E-01  0.1361E-01  0.2435E+00  0.2434E+00
      4.001  0.2626E-01  0.2612E-01  0.2468E+00  0.2468E+00
      4.129  0.4130E-01  0.4117E-01  0.2521E+00  0.2520E+00
      4.256  0.5295E-01  0.5289E-01  0.2588E+00  0.2588E+00
      4.384  0.5526E-01  0.5532E-01  0.2659E+00  0.2659E+00
      4.512  0.4628E-01  0.4639E-01  0.2718E+00  0.2718E+00
      4.640  0.3538E-01  0.3546E-01  0.2763E+00  0.2763E+00
      4.767  0.2819E-01  0.2822E-01  0.2799E+00  0.2799E+00
      4.895  0.2931E-01  0.2926E-01  0.2837E+00  0.2837E+00
      5.023  0.4231E-01  0.4220E-01  0.2891E+00  0.2890E+00
      5.151  0.5897E-01  0.5888E-01  0.2966E+00  0.2966E+00
      5.278  0.7253E-01  0.7246E-01  0.3059E+00  0.3058E+00
      5.406  0.8341E-01  0.8333E-01  0.3165E+00  0.3165E+00
      5.534  0.9034E-01  0.9026E-01  0.3281E+00  0.3280E+00
      5.662  0.9479E-01  0.9471E-01  0.3402E+00  0.3401E+00
      5.789  0.9768E-01  0.9765E-01  0.3527E+00  0.3526E+00
      5.917  0.9568E-01  0.9572E-01  0.3649E+00  0.3648E+00
      6.045  0.9069E-01  0.9073E-01  0.3765E+00  0.3764E+00
      6.173  0.8873E-01  0.8873E-01  0.3878E+00  0.3877E+00
      6.300  0.9376E-01  0.9370E-01  0.3998E+00  0.3997E+00
      6.428  0.9888E-01  0.9882E-01  0.4124E+00  0.4123E+00
      6.556  0.9867E-01  0.9864E-01  0.4250E+00  0.4249E+00
      6.684  0.9844E-01  0.9842E-01  0.4376E+00  0.4375E+00
      6.811  0.9704E-01  0.9705E-01  0.4500E+00  0.4499E+00
      6.939  0.9206E-01  0.9210E-01  0.4618E+00  0.4617E+00
      7.067  0.8737E-01  0.8742E-01  0.4729E+00  0.4728E+00
      7.195  0.8349E-01  0.8355E-01  0.4836E+00  0.4835E+00
      7.322  0.7431E-01  0.7440E-01  0.4931E+00  0.4930E+00
      7.450  0.6439E-01  0.6440E-01  0.5013E+00  0.5012E+00
      7.578  0.6738E-01  0.6722E-01  0.5099E+00  0.5098E+00
      7.706  0.8117E-01  0.8100E-01  0.5203E+00  0.5202E+00
      7.833  0.8945E-01  0.8941E-01  0.5317E+00  0.5316E+00
      7.961  0.9116E-01  0.9106E-01  0.5433E+00  0.5432E+00
      8.089  0.1004E+00  0.1002E+00  0.5562E+00  0.5560E+00
      8.216  0.1133E+00  0.1132E+00  0.5706E+00  0.5705E+00
      8.344  0.1200E+00  0.1201E+00  0.5860E+00  0.5858E+00
      8.472  0.1247E+00  0.1246E+00  0.6019E+00  0.6017E+00
      8.600  0.1309E+00  0.1307E+00  0.6186E+00  0.6184E+00
      8.727  0.1299E+00  0.1297E+00  0.6352E+00  0.6350E+00
      8.855  0.1138E+00  0.1139E+00  0.6497E+00  0.6495E+00
      8.983  0.9023E-01  0.9058E-01  0.6613E+00  0.6611E+00
      9.111  0.7068E-01  0.7095E-01  0.6703E+00  0.6702E+00
      9.238  0.5935E-01  0.5945E-01  0.6779E+00  0.6778E+00
      9.366  0.5307E-01  0.5314E-01  0.6847E+00  0.6846E+00
      9.494  0.4447E-01  0.4456E-01  0.6903E+00  0.6903E+00
      9.622  0.3536E-01  0.3536E-01  0.6948E+00  0.6948E+00
      9.749  0.3367E-01  0.3346E-01  0.6992E+00  0.6990E+00
      9.877  0.3811E-01  0.3787E-01  0.7040E+00  0.7039E+00
     10.005  0.3850E-01  0.3857E-01  0.7089E+00  0.7088E+00
     10.133  0.3112E-01  0.3129E-01  0.7129E+00  0.7128E+00
     10.260  0.2645E-01  0.2619E-01  0.7163E+00  0.7162E+00
     10.388  0.3582E-01  0.3486E-01  0.7209E+00  0.7206E+00
     10.516  0.5853E-01  0.5715E-01  0.7283E+00  0.7279E+00
     10.644  0.8403E-01  0.8273E-01  0.7391E+00  0.7385E+00
     10.771  0.1032E+00  0.1024E+00  0.7523E+00  0.7516E+00
     10.899  0.1120E+00  0.1119E+00  0.7666E+00  0.7658E+00
     11.027  0.1089E+00  0.1095E+00  0.7805E+00  0.7798E+00
     11.155  0.1000E+00  0.1006E+00  0.7933E+00  0.7927E+00
     11.282  0.9593E-01  0.9592E-01  0.8055E+00  0.8049E+00
     11.410  0.9637E-01  0.9608E-01  0.8178E+00  0.8172E+00
     11.538  0.9619E-01  0.9583E-01  0.8301E+00  0.8295E+00
     11.666  0.9534E-01  0.9521E-01  0.8423E+00  0.8416E+00
     11.793  0.8942E-01  0.8991E-01  0.8537E+00  0.8531E+00
     11.921  0.7969E-01  0.8043E-01  0.8639E+00  0.8634E+00
     12.049  0.7026E-01  0.7109E-01  0.8729E+00  0.8725E+00
     12.177  0.5729E-01  0.5814E-01  0.8802E+00  0.8799E+00
     12.304  0.4481E-01  0.4530E-01  0.8859E+00  0.8857E+00
     12.432  0.4070E-01  0.4082E-01  0.8911E+00  0.8909E+00
     12.560  0.4217E-01  0.4222E-01  0.8965E+00  0.8963E+00
     12.688  0.4178E-01  0.4196E-01  0.9018E+00  0.9016E+00
     12.815  0.3617E-01  0.3647E-01  0.9065E+00  0.9063E+00
     12.943  0.2927E-01  0.2949E-01  0.9102E+00  0.9101E+00
     13.071  0.2654E-01  0.2657E-01  0.9136E+00  0.9135E+00
     13.198  0.2936E-01  0.2926E-01  0.9173E+00  0.9172E+00
     13.326  0.3325E-01  0.3328E-01  0.9216E+00  0.9215E+00
     13.454  0.3167E-01  0.3188E-01  0.9256E+00  0.9255E+00
     13.582  0.2645E-01  0.2659E-01  0.9290E+00  0.9289E+00
     13.709  0.2478E-01  0.2475E-01  0.9322E+00  0.9321E+00
     13.837  0.2612E-01  0.2613E-01  0.9355E+00  0.9354E+00
     13.965  0.2416E-01  0.2428E-01  0.9386E+00  0.9385E+00
     14.093  0.2014E-01  0.2023E-01  0.9412E+00  0.9411E+00
     14.220  0.1690E-01  0.1696E-01  0.9433E+00  0.9433E+00
     14.348  0.1364E-01  0.1370E-01  0.9451E+00  0.9450E+00
     14.476  0.1277E-01  0.1275E-01  0.9467E+00  0.9467E+00
     14.604  0.1613E-01  0.1604E-01  0.9488E+00  0.9487E+00
     14.731  0.2012E-01  0.2006E-01  0.9513E+00  0.9513E+00
     14.859  0.2143E-01  0.2145E-01  0.9541E+00  0.9540E+00
     14.987  0.2011E-01  0.2018E-01  0.9566E+00  0.9566E+00
     15.115  0.1955E-01  0.1956E-01  0.9591E+00  0.9591E+00
     15.242  0.2195E-01  0.2191E-01  0.9619E+00  0.9619E+00
     15.370  0.2666E-01  0.2659E-01  0.9653E+00  0.9653E+00
     15.498  0.3152E-01  0.3147E-01  0.9694E+00  0.9693E+00
     15.626  0.3159E-01  0.3165E-01  0.9734E+00  0.9733E+00
     15.753  0.2751E-01  0.2761E-01  0.9769E+00  0.9769E+00
     15.881  0.2252E-01  0.2260E-01  0.9798E+00  0.9798E+00
     16.009  0.1745E-01  0.1751E-01  0.9820E+00  0.9820E+00
     16.137  0.1367E-01  0.1372E-01  0.9838E+00  0.9837E+00
     16.264  0.1177E-01  0.1180E-01  0.9853E+00  0.9853E+00
     16.392  0.1181E-01  0.1181E-01  0.9868E+00  0.9868E+00
     16.520  0.1280E-01  0.1279E-01  0.9884E+00  0.9884E+00
     16.648  0.1400E-01  0.1397E-01  0.9902E+00  0.9902E+00
     16.775  0.1589E-01  0.1583E-01  0.9922E+00  0.9922E+00
     16.903  0.1939E-01  0.1928E-01  0.9947E+00  0.9947E+00
     17.031  0.2381E-01  0.2372E-01  0.9978E+00  0.9977E+00
     17.159  0.2550E-01  0.2550E-01  0.1001E+01  0.1001E+01
     17.286  0.2380E-01  0.2384E-01  0.1004E+01  0.1004E+01
     17.414  0.2497E-01  0.2488E-01  0.1007E+01  0.1007E+01
     17.542  0.3220E-01  0.3204E-01  0.1011E+01  0.1011E+01
     17.670  0.3998E-01  0.3993E-01  0.1016E+01  0.1016E+01
     17.797  0.4028E-01  0.4039E-01  0.1022E+01  0.1022E+01
     17.925  0.3379E-01  0.3390E-01  0.1026E+01  0.1026E+01
     18.053  0.2907E-01  0.2913E-01  0.1030E+01  0.1030E+01
     18.181  0.2531E-01  0.2541E-01  0.1033E+01  0.1033E+01
     18.308  0.2077E-01  0.2084E-01  0.1036E+01  0.1035E+01
     18.436  0.2100E-01  0.2093E-01  0.1038E+01  0.1038E+01
     18.564  0.2669E-01  0.2656E-01  0.1042E+01  0.1042E+01
     18.691  0.3308E-01  0.3298E-01  0.1046E+01  0.1046E+01
     18.819  0.3669E-01  0.3668E-01  0.1051E+01  0.1050E+01
     18.947  0.3527E-01  0.3535E-01  0.1055E+01  0.1055E+01
     19.075  0.3171E-01  0.3179E-01  0.1059E+01  0.1059E+01
     19.202  0.3027E-01  0.3030E-01  0.1063E+01  0.1063E+01
     19.330  0.2999E-01  0.3000E-01  0.1067E+01  0.1067E+01
     19.458  0.2792E-01  0.2795E-01  0.1070E+01  0.1070E+01
     19.586  0.2475E-01  0.2479E-01  0.1074E+01  0.1073E+01
     19.713  0.2474E-01  0.2471E-01  0.1077E+01  0.1077E+01
     19.841  0.2904E-01  0.2895E-01  0.1080E+01  0.1080E+01
     19.969  0.3409E-01  0.3404E-01  0.1085E+01  0.1085E+01
     20.097  0.3554E-01  0.3555E-01  0.1089E+01  0.1089E+01
     20.224  0.3530E-01  0.3532E-01  0.1094E+01  0.1094E+01
     20.352  0.3417E-01  0.3421E-01  0.1098E+01  0.1098E+01
     20.480  0.3244E-01  0.3245E-01  0.1102E+01  0.1102E+01
     20.608  0.3281E-01  0.3281E-01  0.1106E+01  0.1106E+01
     20.735  0.3210E-01  0.3212E-01  0.1111E+01  0.1111E+01
     20.863  0.2946E-01  0.2947E-01  0.1114E+01  0.1114E+01
     20.991  0.3152E-01  0.3143E-01  0.1118E+01  0.1118E+01
     21.119  0.4037E-01  0.4024E-01  0.1124E+01  0.1123E+01
     21.246  0.4726E-01  0.4724E-01  0.1130E+01  0.1129E+01
     21.374  0.4520E-01  0.4527E-01  0.1135E+01  0.1135E+01
     21.502  0.3940E-01  0.3945E-01  0.1140E+01  0.1140E+01
     21.630  0.3722E-01  0.3722E-01  0.1145E+01  0.1145E+01
     21.757  0.3843E-01  0.3835E-01  0.1150E+01  0.1150E+01
     21.885  0.3975E-01  0.3955E-01  0.1155E+01  0.1155E+01
     22.013  0.4004E-01  0.3987E-01  0.1160E+01  0.1160E+01
     22.141  0.3613E-01  0.3615E-01  0.1165E+01  0.1165E+01
     22.268  0.2732E-01  0.2742E-01  0.1168E+01  0.1168E+01
     22.396  0.2073E-01  0.2103E-01  0.1171E+01  0.1171E+01
     22.524  0.1862E-01  0.1893E-01  0.1173E+01  0.1173E+01
     22.652  0.1682E-01  0.1657E-01  0.1176E+01  0.1175E+01
     22.779  0.1347E-01  0.1311E-01  0.1177E+01  0.1177E+01
     22.907  0.9322E-02  0.9594E-02  0.1178E+01  0.1178E+01
     23.035  0.6293E-02  0.6709E-02  0.1179E+01  0.1179E+01
     23.163  0.3941E-02  0.4084E-02  0.1180E+01  0.1180E+01
     23.290  0.1644E-02  0.1666E-02  0.1180E+01  0.1180E+01
     23.418  0.3733E-03  0.3778E-03  0.1180E+01  0.1180E+01
     23.546  0.4272E-04  0.4361E-04  0.1180E+01  0.1180E+01
     23.674  0.2366E-05  0.2441E-05  0.1180E+01  0.1180E+01
     23.801  0.6173E-07  0.6435E-07  0.1180E+01  0.1180E+01
     23.929  0.7443E-09  0.7833E-09  0.1180E+01  0.1180E+01
     24.057  0.4096E-11  0.4348E-11  0.1180E+01  0.1180E+01
     24.184  0.1020E-13  0.1092E-13  0.1180E+01  0.1180E+01
     24.312  0.1135E-16  0.1249E-16  0.1180E+01  0.1180E+01
     24.440  0.0000E+00  0.0000E+00  0.1180E+01  0.1180E+01
     24.568  0.0000E+00  0.0000E+00  0.1180E+01  0.1180E+01
     24.695  0.0000E+00  0.0000E+00  0.1180E+01  0.1180E+01
     24.823  0.0000E+00  0.0000E+00  0.1180E+01  0.1180E+01
     24.951  0.0000E+00  0.0000E+00  0.1180E+01  0.1180E+01
     25.079  0.0000E+00  0.0000E+00  0.1180E+01  0.1180E+01
     25.07869988    -13.24452562  301     10.65642246      1.00000000
    -13.245  0.0000E+00  0.0000E+00  0.0000E+00  0.0000E+00  0.0000E+00  0.0000E+00  0.0000E+00  0.0000E+00  0.0000E+00  0.0000E+00  0.0000E+00  0.0000E+00  0.0000E+00  0.0000E+00  0.0000E+00  0.0000E+00  0.0000E+00  0.0000E+00
    -13.117  0.0000E+00  0.0000E+00  0.0000E+00  0.0000E+00  0.0000E+00  0.0000E+00  0.0000E+00  0.0000E+00  0.0000E+00  0.0000E+00  0.0000E+00  0.0000E+00  0.0000E+00  0.0000E+00  0.0000E+00  0.0000E+00  0.0000E+00  0.0000E+00
    -12.989  0.0000E+00  0.0000E+00  0.0000E+00  0.0000E+00  0.0000E+00  0.0000E+00  0.0000E+00  0.0000E+00  0.0000E+00  0.0000E+00  0.0000E+00  0.0000E+00  0.0000E+00  0.0000E+00  0.0000E+00  0.0000E+00  0.0000E+00  0.0000E+00
    -12.861  0.0000E+00  0.0000E+00  0.0000E+00  0.0000E+00  0.0000E+00  0.0000E+00  0.0000E+00  0.0000E+00  0.0000E+00  0.0000E+00  0.0000E+00  0.0000E+00  0.0000E+00  0.0000E+00  0.0000E+00  0.0000E+00  0.0000E+00  0.0000E+00
    -12.734  0.0000E+00  0.0000E+00  0.0000E+00  0.0000E+00  0.0000E+00  0.0000E+00  0.0000E+00  0.0000E+00  0.0000E+00  0.0000E+00  0.0000E+00  0.0000E+00  0.0000E+00  0.0000E+00  0.0000E+00  0.0000E+00  0.0000E+00  0.0000E+00
    -12.606  0.0000E+00  0.0000E+00  0.0000E+00  0.0000E+00  0.0000E+00  0.0000E+00  0.0000E+00  0.0000E+00  0.0000E+00  0.0000E+00  0.0000E+00  0.0000E+00  0.0000E+00  0.0000E+00  0.0000E+00  0.0000E+00  0.0000E+00  0.0000E+00
    -12.478  0.0000E+00  0.0000E+00  0.0000E+00  0.0000E+00  0.0000E+00  0.0000E+00  0.0000E+00  0.0000E+00  0.0000E+00  0.0000E+00  0.0000E+00  0.0000E+00  0.0000E+00  0.0000E+00  0.0000E+00  0.0000E+00  0.0000E+00  0.0000E+00
    -12.350  0.5803E-17  0.5803E-17  0.1647E-17  0.1639E-17  0.2784E-17  0.2782E-17  0.1508E-17  0.1498E-17  0.2629E-17  0.2623E-17  0.5088E-17  0.5047E-17  0.1415E-17  0.1434E-17  0.6185E-17  0.6157E-17  0.6717E-18  0.6660E-18
    -12.223  0.5955E-14  0.5951E-14  0.1746E-14  0.1738E-14  0.2969E-14  0.2962E-14  0.1612E-14  0.1603E-14  0.2797E-14  0.2784E-14  0.5239E-14  0.5211E-14  0.1441E-14  0.1458E-14  0.6291E-14  0.6264E-14  0.7303E-15  0.7252E-15
    -12.095  0.2753E-11  0.2751E-11  0.8319E-12  0.8286E-12  0.1425E-11  0.1423E-11  0.7756E-12  0.7721E-12  0.1334E-11  0.1329E-11  0.2432E-11  0.2421E-11  0.6665E-12  0.6733E-12  0.2883E-11  0.2872E-11  0.3594E-12  0.3572E-12
    -11.967  0.5756E-09  0.5752E-09  0.1800E-09  0.1794E-09  0.3098E-09  0.3094E-09  0.1698E-09  0.1692E-09  0.2881E-09  0.2871E-09  0.5121E-09  0.5101E-09  0.1409E-09  0.1421E-09  0.5980E-09  0.5961E-09  0.8024E-10  0.7980E-10
    -11.839  0.5470E-07  0.5466E-07  0.1779E-07  0.1775E-07  0.3063E-07  0.3061E-07  0.1701E-07  0.1696E-07  0.2829E-07  0.2822E-07  0.4913E-07  0.4898E-07  0.1368E-07  0.1378E-07  0.5643E-07  0.5630E-07  0.8160E-08  0.8122E-08
    -11.712  0.2376E-05  0.2374E-05  0.8083E-06  0.8066E-06  0.1386E-05  0.1385E-05  0.7838E-06  0.7821E-06  0.1271E-05  0.1269E-05  0.2161E-05  0.2157E-05  0.6148E-06  0.6184E-06  0.2438E-05  0.2434E-05  0.3800E-06  0.3786E-06
    -11.584  0.4749E-04  0.4746E-04  0.1700E-04  0.1697E-04  0.2888E-04  0.2888E-04  0.1675E-04  0.1672E-04  0.2636E-04  0.2633E-04  0.4393E-04  0.4386E-04  0.1288E-04  0.1294E-04  0.4858E-04  0.4852E-04  0.8155E-05  0.8130E-05
    -11.456  0.4404E-03  0.4403E-03  0.1669E-03  0.1667E-03  0.2794E-03  0.2794E-03  0.1672E-03  0.1671E-03  0.2542E-03  0.2541E-03  0.4159E-03  0.4156E-03  0.1268E-03  0.1273E-03  0.4503E-03  0.4500E-03  0.8117E-04  0.8099E-04
    -11.328  0.1911E-02  0.1911E-02  0.7712E-03  0.7709E-03  0.1264E-02  0.1264E-02  0.7863E-03  0.7860E-03  0.1151E-02  0.1151E-02  0.1851E-02  0.1850E-02  0.5917E-03  0.5928E-03  0.1959E-02  0.1958E-02  0.3772E-03  0.3767E-03
    -11.201  0.3913E-02  0.3913E-02  0.1690E-02  0.1690E-02  0.2694E-02  0.2694E-02  0.1753E-02  0.1753E-02  0.2467E-02  0.2467E-02  0.3900E-02  0.3901E-02  0.1315E-02  0.1316E-02  0.4032E-02  0.4033E-02  0.8228E-03  0.8224E-03
    -11.073  0.3803E-02  0.3804E-02  0.1765E-02  0.1765E-02  0.2716E-02  0.2716E-02  0.1863E-02  0.1863E-02  0.2519E-02  0.2520E-02  0.3919E-02  0.3920E-02  0.1399E-02  0.1399E-02  0.3956E-02  0.3957E-02  0.8452E-03  0.8455E-03
    -10.945  0.1763E-02  0.1763E-02  0.8801E-03  0.8805E-03  0.1298E-02  0.1298E-02  0.9445E-03  0.9448E-03  0.1231E-02  0.1231E-02  0.1885E-02  0.1885E-02  0.7129E-03  0.7115E-03  0.1858E-02  0.1858E-02  0.4088E-03  0.4094E-03
    -10.817  0.3909E-03  0.3908E-03  0.2095E-03  0.2096E-03  0.2942E-03  0.2938E-03  0.2282E-03  0.2283E-03  0.2881E-03  0.2880E-03  0.4344E-03  0.4343E-03  0.1734E-03  0.1728E-03  0.4188E-03  0.4187E-03  0.9287E-04  0.9308E-04
    -10.690  0.4148E-04  0.4145E-04  0.2372E-04  0.2372E-04  0.3151E-04  0.3144E-04  0.2619E-04  0.2619E-04  0.3227E-04  0.3224E-04  0.4795E-04  0.4790E-04  0.2002E-04  0.1994E-04  0.4531E-04  0.4526E-04  0.9853E-05  0.9885E-05
    -10.562  0.2106E-05  0.2102E-05  0.1271E-05  0.1271E-05  0.1590E-05  0.1584E-05  0.1419E-05  0.1419E-05  0.1723E-05  0.1720E-05  0.2529E-05  0.2523E-05  0.1090E-05  0.1085E-05  0.2349E-05  0.2343E-05  0.4852E-06  0.4872E-06
    -10.434  0.5101E-07  0.5086E-07  0.3204E-07  0.3200E-07  0.3765E-07  0.3745E-07  0.3611E-07  0.3607E-07  0.4365E-07  0.4351E-07  0.6345E-07  0.6319E-07  0.2778E-07  0.2760E-07  0.5814E-07  0.5789E-07  0.1102E-07  0.1107E-07
    -10.306  0.5872E-09  0.5845E-09  0.3776E-09  0.3768E-09  0.4168E-09  0.4139E-09  0.4288E-09  0.4278E-09  0.5209E-09  0.5185E-09  0.7536E-09  0.7488E-09  0.3288E-09  0.3263E-09  0.6830E-09  0.6786E-09  0.1147E-09  0.1154E-09
    -10.179  0.3189E-11  0.3169E-11  0.2067E-11  0.2060E-11  0.2150E-11  0.2130E-11  0.2361E-11  0.2353E-11  0.2907E-11  0.2889E-11  0.4207E-11  0.4170E-11  0.1795E-11  0.1779E-11  0.3779E-11  0.3745E-11  0.5447E-12  0.5484E-12
    -10.051  0.8101E-14  0.8035E-14  0.5228E-14  0.5203E-14  0.5147E-14  0.5089E-14  0.6001E-14  0.5971E-14  0.7523E-14  0.7463E-14  0.1096E-13  0.1083E-13  0.4492E-14  0.4448E-14  0.9759E-14  0.9646E-14  0.1175E-14  0.1184E-14
     -9.923  0.9418E-17  0.9315E-17  0.6057E-17  0.6015E-17  0.5630E-17  0.5565E-17  0.6980E-17  0.6933E-17  0.8923E-17  0.8822E-17  0.1314E-16  0.1295E-16  0.5098E-17  0.5057E-17  0.1147E-16  0.1129E-16  0.1136E-17  0.1146E-17
     -9.795  0.0000E+00  0.0000E+00  0.0000E+00  0.0000E+00  0.0000E+00  0.0000E+00  0.0000E+00  0.0000E+00  0.0000E+00  0.0000E+00  0.0000E+00  0.0000E+00  0.0000E+00  0.0000E+00  0.0000E+00  0.0000E+00  0.0000E+00  0.0000E+00
     -9.668  0.0000E+00  0.0000E+00  0.0000E+00  0.0000E+00  0.0000E+00  0.0000E+00  0.0000E+00  0.0000E+00  0.0000E+00  0.0000E+00  0.0000E+00  0.0000E+00  0.0000E+00  0.0000E+00  0.0000E+00  0.0000E+00  0.0000E+00  0.0000E+00
     -9.540  0.0000E+00  0.0000E+00  0.0000E+00  0.0000E+00  0.0000E+00  0.0000E+00  0.0000E+00  0.0000E+00  0.0000E+00  0.0000E+00  0.0000E+00  0.0000E+00  0.0000E+00  0.0000E+00  0.0000E+00  0.0000E+00  0.0000E+00  0.0000E+00
     -9.412  0.0000E+00  0.0000E+00  0.0000E+00  0.0000E+00  0.0000E+00  0.0000E+00  0.0000E+00  0.0000E+00  0.0000E+00  0.0000E+00  0.0000E+00  0.0000E+00  0.0000E+00  0.0000E+00  0.0000E+00  0.0000E+00  0.0000E+00  0.0000E+00
     -9.284  0.0000E+00  0.0000E+00  0.0000E+00  0.0000E+00  0.0000E+00  0.0000E+00  0.0000E+00  0.0000E+00  0.0000E+00  0.0000E+00  0.0000E+00  0.0000E+00  0.0000E+00  0.0000E+00  0.0000E+00  0.0000E+00  0.0000E+00  0.0000E+00
     -9.157  0.0000E+00  0.0000E+00  0.0000E+00  0.0000E+00  0.0000E+00  0.0000E+00  0.0000E+00  0.0000E+00  0.0000E+00  0.0000E+00  0.0000E+00  0.0000E+00  0.0000E+00  0.0000E+00  0.0000E+00  0.0000E+00  0.0000E+00  0.0000E+00
     -9.029  0.0000E+00  0.0000E+00  0.0000E+00  0.0000E+00  0.0000E+00  0.0000E+00  0.0000E+00  0.0000E+00  0.0000E+00  0.0000E+00  0.0000E+00  0.0000E+00  0.0000E+00  0.0000E+00  0.0000E+00  0.0000E+00  0.0000E+00  0.0000E+00
     -8.901  0.0000E+00  0.0000E+00  0.0000E+00  0.0000E+00  0.0000E+00  0.0000E+00  0.0000E+00  0.0000E+00  0.0000E+00  0.0000E+00  0.0000E+00  0.0000E+00  0.0000E+00  0.0000E+00  0.0000E+00  0.0000E+00  0.0000E+00  0.0000E+00
     -8.773  0.0000E+00  0.0000E+00  0.0000E+00  0.0000E+00  0.0000E+00  0.0000E+00  0.0000E+00  0.0000E+00  0.0000E+00  0.0000E+00  0.0000E+00  0.0000E+00  0.0000E+00  0.0000E+00  0.0000E+00  0.0000E+00  0.0000E+00  0.0000E+00
     -8.646  0.0000E+00  0.0000E+00  0.0000E+00  0.0000E+00  0.0000E+00  0.0000E+00  0.0000E+00  0.0000E+00  0.0000E+00  0.0000E+00  0.0000E+00  0.0000E+00  0.0000E+00  0.0000E+00  0.0000E+00  0.0000E+00  0.0000E+00  0.0000E+00
     -8.518  0.0000E+00  0.0000E+00  0.0000E+00  0.0000E+00  0.0000E+00  0.0000E+00  0.0000E+00  0.0000E+00  0.0000E+00  0.0000E+00  0.0000E+00  0.0000E+00  0.0000E+00  0.0000E+00  0.0000E+00  0.0000E+00  0.0000E+00  0.0000E+00
     -8.390  0.0000E+00  0.0000E+00  0.0000E+00  0.0000E+00  0.0000E+00  0.0000E+00  0.0000E+00  0.0000E+00  0.0000E+00  0.0000E+00  0.0000E+00  0.0000E+00  0.0000E+00  0.0000E+00  0.0000E+00  0.0000E+00  0.0000E+00  0.0000E+00
     -8.263  0.0000E+00  0.0000E+00  0.0000E+00  0.0000E+00  0.0000E+00  0.0000E+00  0.0000E+00  0.0000E+00  0.0000E+00  0.0000E+00  0.0000E+00  0.0000E+00  0.0000E+00  0.0000E+00  0.0000E+00  0.0000E+00  0.0000E+00  0.0000E+00
     -8.135  0.0000E+00  0.0000E+00  0.0000E+00  0.0000E+00  0.0000E+00  0.0000E+00  0.0000E+00  0.0000E+00  0.0000E+00  0.0000E+00  0.0000E+00  0.0000E+00  0.0000E+00  0.0000E+00  0.0000E+00  0.0000E+00  0.0000E+00  0.0000E+00
     -8.007  0.0000E+00  0.0000E+00  0.0000E+00  0.0000E+00  0.0000E+00  0.0000E+00  0.0000E+00  0.0000E+00  0.0000E+00  0.0000E+00  0.0000E+00  0.0000E+00  0.0000E+00  0.0000E+00  0.0000E+00  0.0000E+00  0.0000E+00  0.0000E+00
     -7.879  0.0000E+00  0.0000E+00  0.0000E+00  0.0000E+00  0.0000E+00  0.0000E+00  0.0000E+00  0.0000E+00  0.0000E+00  0.0000E+00  0.0000E+00  0.0000E+00  0.0000E+00  0.0000E+00  0.0000E+00  0.0000E+00  0.0000E+00  0.0000E+00
     -7.752  0.0000E+00  0.0000E+00  0.0000E+00  0.0000E+00  0.0000E+00  0.0000E+00  0.0000E+00  0.0000E+00  0.0000E+00  0.0000E+00  0.0000E+00  0.0000E+00  0.0000E+00  0.0000E+00  0.0000E+00  0.0000E+00  0.0000E+00  0.0000E+00
     -7.624  0.0000E+00  0.0000E+00  0.0000E+00  0.0000E+00  0.0000E+00  0.0000E+00  0.0000E+00  0.0000E+00  0.0000E+00  0.0000E+00  0.0000E+00  0.0000E+00  0.0000E+00  0.0000E+00  0.0000E+00  0.0000E+00  0.0000E+00  0.0000E+00
     -7.496  0.0000E+00  0.0000E+00  0.0000E+00  0.0000E+00  0.0000E+00  0.0000E+00  0.0000E+00  0.0000E+00  0.0000E+00  0.0000E+00  0.0000E+00  0.0000E+00  0.0000E+00  0.0000E+00  0.0000E+00  0.0000E+00  0.0000E+00  0.0000E+00
     -7.368  0.0000E+00  0.0000E+00  0.0000E+00  0.0000E+00  0.0000E+00  0.0000E+00  0.0000E+00  0.0000E+00  0.0000E+00  0.0000E+00  0.0000E+00  0.0000E+00  0.0000E+00  0.0000E+00  0.0000E+00  0.0000E+00  0.0000E+00  0.0000E+00
     -7.241  0.0000E+00  0.0000E+00  0.0000E+00  0.0000E+00  0.0000E+00  0.0000E+00  0.0000E+00  0.0000E+00  0.0000E+00  0.0000E+00  0.0000E+00  0.0000E+00  0.0000E+00  0.0000E+00  0.0000E+00  0.0000E+00  0.0000E+00  0.0000E+00
     -7.113  0.0000E+00  0.0000E+00  0.0000E+00  0.0000E+00  0.0000E+00  0.0000E+00  0.0000E+00  0.0000E+00  0.0000E+00  0.0000E+00  0.0000E+00  0.0000E+00  0.0000E+00  0.0000E+00  0.0000E+00  0.0000E+00  0.0000E+00  0.0000E+00
     -6.985  0.0000E+00  0.0000E+00  0.0000E+00  0.0000E+00  0.0000E+00  0.0000E+00  0.0000E+00  0.0000E+00  0.0000E+00  0.0000E+00  0.0000E+00  0.0000E+00  0.0000E+00  0.0000E+00  0.0000E+00  0.0000E+00  0.0000E+00  0.0000E+00
     -6.857  0.0000E+00  0.0000E+00  0.0000E+00  0.0000E+00  0.0000E+00  0.0000E+00  0.0000E+00  0.0000E+00  0.0000E+00  0.0000E+00  0.0000E+00  0.0000E+00  0.0000E+00  0.0000E+00  0.0000E+00  0.0000E+00  0.0000E+00  0.0000E+00