 running on    8 total cores
 distrk:  each k-point on    8 cores,    1 groups
 distr:  one band on    4 cores,    2 groups
 using from now: INCAR     
 vasp.5.3.2 13Sep12 (build Mar 19 2013 12:21:59) complex                        
  
 POSCAR found type information on POSCAR  Rh Sn V 
 POSCAR found :  3 types and      16 ions
 LDA part: xc-table for Pade appr. of Perdew
 POSCAR, INCAR and KPOINTS ok, starting setup
 WARNING: small aliasing (wrap around) errors must be expected
 FFT: planning ...
 WAVECAR not read
 charge-density read from file: unknown                                 
 magnetization density read from file 1
 WARNING: random wavefunctions but no delay for mixing, default for NELMDL
 entering main loop
       N       E                     dE             d eps       ncg     rms          rms(c)
DAV:   1     0.858791705139E+03    0.85879E+03   -0.30400E+04 14608   0.756E+02
DAV:   2    -0.115394312611E+02   -0.87033E+03   -0.79359E+03 14438   0.244E+02
DAV:   3    -0.110417761821E+03   -0.98878E+02   -0.88989E+02 14862   0.857E+01
DAV:   4    -0.113304675986E+03   -0.28869E+01   -0.28640E+01 15930   0.168E+01
DAV:   5    -0.113400731793E+03   -0.96056E-01   -0.96038E-01 20930   0.280E+00    0.272E-01
RMM:   6    -0.113419877603E+03   -0.19146E-01   -0.22230E-02 14542   0.467E-01    0.526E-01
RMM:   7    -0.113418865231E+03    0.10124E-02   -0.27478E-03 16114   0.143E-01    0.153E-01
RMM:   8    -0.113419904900E+03   -0.10397E-02   -0.61391E-04 13992   0.685E-02    0.111E-01
RMM:   9    -0.113419921056E+03   -0.16156E-04   -0.81242E-05  9590   0.342E-02
   1 F= -.11341992E+03 E0= -.11328362E+03  d E =-.113420E+03  mag=     5.1354
 curvature:   0.00 expect dE= 0.000E+00 dE for cont linesearch  0.000E+00
 trial: gam= 0.00000 g(F)=  0.540E-58 g(S)=  0.546E+02 ort = 0.000E+00 (trialstep = 0.100E+01)
 search vector abs. value=  0.546E+02
 bond charge predicted
       N       E                     dE             d eps       ncg     rms          rms(c)
DAV:   1    -0.650728701240E+03   -0.53731E+03   -0.91313E+03 18162   0.438E+02    0.193E+02
RMM:   2    -0.154086386171E+03    0.49664E+03   -0.15726E+03 20786   0.278E+02    0.769E+01
RMM:   3     0.138571765911E+02    0.16794E+03   -0.55734E+02 15219   0.150E+02    0.499E+01
RMM:   4    -0.232578175473E+02   -0.37115E+02   -0.12850E+03 16507   0.114E+02    0.656E+01
RMM:   5     0.897806605646E+02    0.11304E+03   -0.26404E+02 19532   0.618E+01    0.150E+01
RMM:   6     0.928136535673E+02    0.30330E+01   -0.62153E+01 18008   0.221E+01    0.115E+01
RMM:   7     0.954341108015E+02    0.26205E+01   -0.18232E+01 19983   0.117E+01    0.369E+00
RMM:   8     0.956915236775E+02    0.25741E+00   -0.71401E+00 19469   0.604E+00    0.201E+00
RMM:   9     0.958388368422E+02    0.14731E+00   -0.26762E+00 21684   0.224E+00    0.180E+00
RMM:  10     0.959608367702E+02    0.12200E+00   -0.98533E-01 17536   0.169E+00    0.555E-01
RMM:  11     0.960048797927E+02    0.44043E-01   -0.27742E-01 21167   0.460E-01    0.628E-01
RMM:  12     0.960085128530E+02    0.36331E-02   -0.10050E-01 16892   0.429E-01    0.182E-01
RMM:  13     0.960154258431E+02    0.69130E-02   -0.51044E-01 19143   0.250E-01    0.951E-02
RMM:  14     0.960140767642E+02   -0.13491E-02   -0.17574E-01 12462   0.126E-01    0.615E-02
RMM:  15     0.960325063802E+02    0.18430E-01   -0.51871E-01 10759   0.124E-01    0.836E-02
RMM:  16     0.960270445450E+02   -0.54618E-02   -0.22747E-02  9890   0.552E-02    0.262E-02
RMM:  17     0.960243840498E+02   -0.26605E-02   -0.18843E-01  9647   0.649E-02    0.638E-02
RMM:  18     0.960156716733E+02   -0.87124E-02   -0.18474E-01  9630   0.487E-02    0.352E-02
RMM:  19     0.960215042199E+02    0.58325E-02   -0.63711E-01  9528   0.114E-01    0.381E-02
RMM:  20     0.960184063093E+02   -0.30979E-02   -0.23521E-01  9548   0.573E-02    0.384E-02
RMM:  21     0.960142812245E+02   -0.41251E-02   -0.15041E-01  9433   0.392E-02    0.897E-02
RMM:  22     0.960156911878E+02    0.14100E-02   -0.57003E-01  8719   0.105E-01    0.586E-02
RMM:  23     0.960139427399E+02   -0.17484E-02   -0.29655E-01  7987   0.686E-02    0.289E-02
RMM:  24     0.959725326314E+02   -0.41410E-01   -0.18343E-01  7272   0.435E-02    0.606E-02
RMM:  25     0.960151234730E+02    0.42591E-01   -0.61051E-01  6225   0.106E-01    0.807E-02
RMM:  26     0.959743751674E+02   -0.40748E-01   -0.23910E-01  7348   0.588E-02    0.989E-02
RMM:  27     0.960102107578E+02    0.35836E-01   -0.95284E-01  7002   0.172E-01    0.140E-01
RMM:  28     0.960111858787E+02    0.97512E-03   -0.82397E-01  7144   0.142E-01    0.948E-02
RMM:  29     0.959871396257E+02   -0.24046E-01   -0.69466E-01  6074   0.118E-01    0.101E-01
RMM:  30     0.959821858535E+02   -0.49538E-02   -0.11428E+00  8362   0.193E-01    0.144E-01
RMM:  31     0.960113498771E+02    0.29164E-01   -0.81929E-01  7987   0.149E-01    0.175E-01
RMM:  32     0.959924290130E+02   -0.18921E-01   -0.75354E-01  8095   0.133E-01    0.644E-02
RMM:  33     0.960057713809E+02    0.13342E-01   -0.10253E+00  6935   0.158E-01    0.928E-02
RMM:  34     0.959911274732E+02   -0.14644E-01   -0.13015E+00  6653   0.178E-01    0.787E-02
RMM:  35     0.959932642099E+02    0.21367E-02   -0.10401E+00  5719   0.177E-01    0.936E-02
RMM:  36     0.959851789022E+02   -0.80853E-02   -0.13726E+00  7894   0.217E-01    0.143E-01
RMM:  37     0.960093918209E+02    0.24213E-01   -0.13542E+00  6532   0.205E-01    0.499E-02
RMM:  38     0.960223166130E+02    0.12925E-01   -0.78155E-01  7408   0.145E-01    0.249E-02
RMM:  39     0.960149338211E+02   -0.73828E-02   -0.53815E-01  6289   0.903E-02    0.357E-02
RMM:  40     0.960101201842E+02   -0.48136E-02   -0.10918E+00  5917   0.139E-01    0.735E-02
RMM:  41     0.960090482681E+02   -0.10719E-02   -0.94467E-01  5606   0.148E-01    0.175E-01
RMM:  42     0.959912178717E+02   -0.17830E-01   -0.13084E+00  6309   0.207E-01    0.601E-02
RMM:  43     0.960064060190E+02    0.15188E-01   -0.10663E+00  5830   0.164E-01    0.592E-02
RMM:  44     0.959791818399E+02   -0.27224E-01   -0.81749E-01  7105   0.139E-01    0.151E-01
RMM:  45     0.959886923280E+02    0.95105E-02   -0.14189E+00  6346   0.229E-01    0.119E-01
RMM:  46     0.960089756969E+02    0.20283E-01   -0.17565E+00  7097   0.285E-01    0.138E-01
RMM:  47     0.960187687907E+02    0.97931E-02   -0.85761E-01  7486   0.145E-01    0.911E-02
RMM:  48     0.959818784201E+02   -0.36890E-01   -0.77898E-01  6992   0.123E-01    0.130E-01
RMM:  49     0.960050368026E+02    0.23158E-01   -0.10255E+00  8584   0.177E-01    0.821E-02
RMM:  50     0.960062782713E+02    0.12415E-02   -0.90130E-01  6071   0.165E-01    0.972E-02
RMM:  51     0.959755571029E+02   -0.30721E-01   -0.13912E+00  6679   0.202E-01    0.157E-01
RMM:  52     0.960031094211E+02    0.27552E-01   -0.19543E+00  7051   0.297E-01    0.183E-01
RMM:  53     0.960238868561E+02    0.20777E-01   -0.14537E+00  6616   0.199E-01    0.488E-02
RMM:  54     0.959904368849E+02   -0.33450E-01   -0.44243E-01  6638   0.763E-02    0.466E-02
RMM:  55     0.959657138131E+02   -0.24723E-01   -0.10998E+00  5814   0.163E-01    0.167E-01
RMM:  56     0.959839202288E+02    0.18206E-01   -0.25272E+00  6061   0.280E-01    0.109E-01
RMM:  57     0.959829191031E+02   -0.10011E-02   -0.14028E+00  6751   0.217E-01    0.169E-01
RMM:  58     0.960203649288E+02    0.37446E-01   -0.18376E+00  7604   0.255E-01    0.535E-02
RMM:  59     0.959986490828E+02   -0.21716E-01   -0.63086E-01  7492   0.116E-01    0.788E-02
RMM:  60     0.960001315400E+02    0.14825E-02   -0.16501E+00  7013   0.236E-01
   2 F= 0.96000132E+02 E0= 0.96092068E+02  d E =0.209420E+03  mag=     0.0105
 trial-energy change:  209.420053  1 .order  226.135823  -54.601143  506.872790
 step:   0.1155(harm=  0.0972)  dis= 0.00000  next Energy=  -116.598718 (dE=-0.318E+01)
 bond charge predicted
       N       E                     dE             d eps       ncg     rms          rms(c)
DAV:   1    -0.449972516487E+03   -0.54597E+03   -0.13101E+04 14580   0.927E+02BRMIX: very serious problems
 the old and the new charge density differ
 old charge density:   147.99993 new  148.00163
    0.103E+02
RMM:   2    -0.371463384448E+03    0.78509E+02   -0.26597E+03 16894   0.175E+02    0.105E+02
RMM:   3    -0.238186563840E+03    0.13328E+03   -0.24029E+02 18105   0.478E+01    0.559E+01
RMM:   4    -0.142819844348E+03    0.95367E+02   -0.27350E+02 14289   0.548E+01    0.258E+01
RMM:   5    -0.128896783799E+03    0.13923E+02   -0.11472E+01 15699   0.138E+01    0.169E+01
RMM:   6    -0.119282399999E+03    0.96144E+01   -0.15499E+01 14165   0.133E+01    0.825E+00
RMM:   7    -0.117256092075E+03    0.20263E+01   -0.27545E+00 14441   0.505E+00    0.292E+00
RMM:   8    -0.116722125131E+03    0.53397E+00   -0.17168E+00 14335   0.439E+00    0.634E-01
RMM:   9    -0.116744069787E+03   -0.21945E-01   -0.15639E-01 15451   0.119E+00    0.108E+00
RMM:  10    -0.116753789243E+03   -0.97195E-02   -0.22718E-02 15963   0.471E-01    0.123E+00
RMM:  11    -0.116755380512E+03   -0.15913E-02   -0.25762E-03 17808   0.126E-01    0.125E+00
RMM:  12    -0.116716771490E+03    0.38609E-01   -0.10440E-01 14160   0.104E+00    0.687E-01
RMM:  13    -0.116717414266E+03   -0.64278E-03   -0.72453E-03 14069   0.272E-01    0.622E-01
RMM:  14    -0.116710404705E+03    0.70096E-02   -0.87715E-03 13896   0.234E-01    0.317E-01
RMM:  15    -0.116714162924E+03   -0.37582E-02   -0.20167E-03 13393   0.141E-01    0.269E-01
RMM:  16    -0.116712835881E+03    0.13270E-02   -0.55980E-04 12546   0.672E-02    0.115E-01
RMM:  17    -0.116713098149E+03   -0.26227E-03   -0.13479E-04 10045   0.313E-02    0.629E-02
RMM:  18    -0.116713225543E+03   -0.12739E-03   -0.88299E-05  9704   0.355E-02    0.392E-02
RMM:  19    -0.116713198671E+03    0.26871E-04   -0.30032E-05  8305   0.158E-02
   3 F= -.11671320E+03 E0= -.11651118E+03  d E =-.329328E+01  mag=    -0.0087
 curvature:  -0.05 expect dE=-0.853E-01 dE for cont linesearch -0.818E-01
 ZBRENT: interpolating
 opt :   0.1319  next Energy=  -116.791919 (dE=-0.337E+01)
 bond charge predicted
       N       E                     dE             d eps       ncg     rms          rms(c)
DAV:   1    -0.116998889486E+03   -0.28566E+00   -0.33755E+00 15826   0.906E+00    0.283E+00
RMM:   2    -0.117368884689E+03   -0.37000E+00   -0.89082E-01 14753   0.283E+00    0.605E+00
RMM:   3    -0.116850522616E+03    0.51836E+00   -0.29294E-01 14652   0.134E+00    0.890E-01
RMM:   4    -0.116824104263E+03    0.26418E-01   -0.35141E-02 16649   0.729E-01    0.216E-01
RMM:   5    -0.116822633222E+03    0.14710E-02   -0.36895E-03 15551   0.238E-01    0.106E-01
RMM:   6    -0.116822739997E+03   -0.10677E-03   -0.21839E-04 10741   0.499E-02    0.148E-01
RMM:   7    -0.116822328411E+03    0.41159E-03   -0.14801E-04 10088   0.428E-02    0.927E-02
RMM:   8    -0.116822255939E+03    0.72472E-04   -0.14573E-04  9958   0.359E-02
   4 F= -.11682226E+03 E0= -.11662312E+03  d E =-.340233E+01  mag=     0.0410
 curvature:  -0.05 expect dE=-0.123E-01 dE for cont linesearch -0.847E-02
 ZBRENT: interpolating
 opt :   0.1399  next Energy=  -116.834852 (dE=-0.341E+01)
 bond charge predicted
       N       E                     dE             d eps       ncg     rms          rms(c)
DAV:   1    -0.116879287053E+03   -0.56959E-01   -0.80165E-01 15720   0.446E+00    0.138E+00
RMM:   2    -0.116965134966E+03   -0.85848E-01   -0.20978E-01 14803   0.139E+00    0.296E+00
RMM:   3    -0.116844177969E+03    0.12096E+00   -0.68040E-02 14653   0.640E-01    0.459E-01
RMM:   4    -0.116838750721E+03    0.54272E-02   -0.82120E-03 16601   0.352E-01    0.267E-01
RMM:   5    -0.116840558478E+03   -0.18078E-02   -0.93436E-04 14302   0.113E-01    0.426E-01
RMM:   6    -0.116836223813E+03    0.43347E-02   -0.17013E-03 13440   0.137E-01    0.224E-01
RMM:   7    -0.116836758584E+03   -0.53477E-03   -0.46016E-04 11816   0.516E-02    0.865E-02
RMM:   8    -0.116837359632E+03   -0.60105E-03   -0.14953E-04  9966   0.455E-02    0.929E-02
RMM:   9    -0.116837172251E+03    0.18738E-03   -0.11996E-04  9578   0.348E-02    0.399E-02
RMM:  10    -0.116837223469E+03   -0.51218E-04   -0.32022E-05  9068   0.160E-02
   5 F= -.11683722E+03 E0= -.11663946E+03  d E =-.341730E+01  mag=     0.0132
 curvature:  -0.07 expect dE=-0.627E-02 dE for cont linesearch -0.977E-04
 trial: gam=-0.00342 g(F)=  0.313E-58 g(S)=  0.901E-01 ort = 0.277E+00 (trialstep = 0.828E+00)
 search vector abs. value=  0.888E-01
 bond charge predicted
       N       E                     dE             d eps       ncg     rms          rms(c)
DAV:   1    -0.116956103044E+03   -0.11893E+00   -0.53769E+00 15430   0.698E+00    0.188E+00
RMM:   2    -0.116900892283E+03    0.55211E-01   -0.11441E-01 15988   0.132E+00    0.129E+00
RMM:   3    -0.116908605050E+03   -0.77128E-02   -0.45766E-02 14962   0.637E-01    0.167E+00
RMM:   4    -0.116864321858E+03    0.44283E-01   -0.28883E-02 14990   0.412E-01    0.157E-01
RMM:   5    -0.116863888548E+03    0.43331E-03   -0.17663E-03 16649   0.153E-01    0.186E-01
RMM:   6    -0.116863963199E+03   -0.74651E-04   -0.17747E-04 10195   0.468E-02
   6 F= -.11686396E+03 E0= -.11667235E+03  d E =-.267397E-01  mag=     0.1582
 trial-energy change:   -0.026740  1 .order   -0.026042   -0.073792    0.021709
 step:   0.6460(harm=  0.6398)  dis= 0.00000  next Energy=  -116.866342 (dE=-0.291E-01)
 bond charge predicted
       N       E                     dE             d eps       ncg     rms          rms(c)
DAV:   1    -0.116871359003E+03   -0.74705E-02   -0.25959E-01 15250   0.154E+00    0.492E-01
RMM:   2    -0.116871076470E+03    0.28253E-03   -0.68717E-03 15772   0.318E-01    0.523E-01
RMM:   3    -0.116873001504E+03   -0.19250E-02   -0.17065E-03 14281   0.128E-01    0.608E-01
RMM:   4    -0.116876065902E+03   -0.30644E-02   -0.52551E-04 12466   0.622E-02    0.743E-01
RMM:   5    -0.116861998741E+03    0.14067E-01   -0.45083E-03 13506   0.205E-01    0.411E-01
RMM:   6    -0.116864109543E+03   -0.21108E-02   -0.14709E-03 12913   0.923E-02    0.140E-01
RMM:   7    -0.116866128451E+03   -0.20189E-02   -0.41678E-04 11517   0.719E-02    0.143E-01
RMM:   8    -0.116865802053E+03    0.32640E-03   -0.21083E-04 10575   0.495E-02    0.946E-02
RMM:   9    -0.116865712401E+03    0.89652E-04   -0.16011E-04 10203   0.333E-02
   7 F= -.11686571E+03 E0= -.11667271E+03  d E =-.284889E-01  mag=     0.0325
 curvature:  -0.32 expect dE=-0.151E-03 dE for cont linesearch -0.606E-05
 trial: gam= 0.01377 g(F)=  0.278E-58 g(S)=  0.475E-03 ort =-0.130E-02 (trialstep = 0.792E+00)
 search vector abs. value=  0.456E-03
 reached required accuracy - stopping structural energy minimisation
