  12  12   1   0
  0.1160865E+02  0.4816070E-09  0.4816070E-09  0.6343271E-09  0.5000000E-15
  1.000000000000000E-004
  CAR 
 unknown system                          
     15.59365425    -17.64066643  301      3.65699407      1.00000000
    -17.641  0.0000E+00  0.0000E+00  0.0000E+00  0.0000E+00
    -17.530  0.0000E+00  0.0000E+00  0.0000E+00  0.0000E+00
    -17.419  0.0000E+00  0.0000E+00  0.0000E+00  0.0000E+00
    -17.308  0.0000E+00  0.0000E+00  0.0000E+00  0.0000E+00
    -17.198  0.0000E+00  0.0000E+00  0.0000E+00  0.0000E+00
    -17.087  0.0000E+00  0.0000E+00  0.0000E+00  0.0000E+00
    -16.976  0.0000E+00  0.0000E+00  0.0000E+00  0.0000E+00
    -16.865  0.0000E+00  0.0000E+00  0.0000E+00  0.0000E+00
    -16.754  0.0000E+00  0.0000E+00  0.0000E+00  0.0000E+00
    -16.644  0.0000E+00  0.0000E+00  0.0000E+00  0.0000E+00
    -16.533  0.0000E+00  0.0000E+00  0.0000E+00  0.0000E+00
    -16.422  0.0000E+00  0.0000E+00  0.0000E+00  0.0000E+00
    -16.311  0.0000E+00  0.0000E+00  0.0000E+00  0.0000E+00
    -16.201  0.0000E+00  0.0000E+00  0.0000E+00  0.0000E+00
    -16.090  0.0000E+00  0.0000E+00  0.0000E+00  0.0000E+00
    -15.979  0.0000E+00  0.0000E+00  0.0000E+00  0.0000E+00
    -15.868  0.0000E+00  0.0000E+00  0.0000E+00  0.0000E+00
    -15.757  0.0000E+00  0.0000E+00  0.0000E+00  0.0000E+00
    -15.647  0.0000E+00  0.0000E+00  0.0000E+00  0.0000E+00
    -15.536  0.4214E+00  0.7279E+00  0.8404E-02  0.4275E-01
    -15.425  0.9449E+00  0.1217E+01  0.8433E-01  0.1497E+00
    -15.314  0.1754E+01  0.1715E+01  0.2217E+00  0.3218E+00
    -15.203  0.2167E+01  0.2433E+01  0.4282E+00  0.5395E+00
    -15.093  0.3109E+01  0.2734E+01  0.7374E+00  0.8590E+00
    -14.982  0.2298E+01  0.1959E+01  0.1008E+01  0.1110E+01
    -14.871  0.1897E+01  0.6002E+01  0.1209E+01  0.1408E+01
    -14.760  0.4907E+01  0.9742E+01  0.1667E+01  0.2050E+01
    -14.650  0.4129E+01  0.9961E+01  0.2441E+01  0.2839E+01
    -14.539  0.2314E+02  0.1227E+02  0.3531E+01  0.4234E+01
    -14.428  0.4358E+01  0.1207E+02  0.4570E+01  0.5267E+01
    -14.317  0.1829E+02  0.1856E+02  0.5265E+01  0.6232E+01
    -14.206  0.9635E+01  0.5528E+01  0.6362E+01  0.7692E+01
    -14.096  0.5675E+01  0.9128E+00  0.7542E+01  0.7995E+01
    -13.985  0.1973E+01  0.0000E+00  0.7932E+01  0.8000E+01
    -13.874  0.0000E+00  0.0000E+00  0.8000E+01  0.8000E+01
    -13.763  0.0000E+00  0.0000E+00  0.8000E+01  0.8000E+01
    -13.653  0.0000E+00  0.0000E+00  0.8000E+01  0.8000E+01
    -13.542  0.0000E+00  0.0000E+00  0.8000E+01  0.8000E+01
    -13.431  0.0000E+00  0.0000E+00  0.8000E+01  0.8000E+01
    -13.320  0.0000E+00  0.0000E+00  0.8000E+01  0.8000E+01
    -13.209  0.0000E+00  0.0000E+00  0.8000E+01  0.8000E+01
    -13.099  0.0000E+00  0.0000E+00  0.8000E+01  0.8000E+01
    -12.988  0.0000E+00  0.0000E+00  0.8000E+01  0.8000E+01
    -12.877  0.0000E+00  0.0000E+00  0.8000E+01  0.8000E+01
    -12.766  0.0000E+00  0.0000E+00  0.8000E+01  0.8000E+01
    -12.656  0.0000E+00  0.0000E+00  0.8000E+01  0.8000E+01
    -12.545  0.0000E+00  0.0000E+00  0.8000E+01  0.8000E+01
    -12.434  0.0000E+00  0.0000E+00  0.8000E+01  0.8000E+01
    -12.323  0.0000E+00  0.0000E+00  0.8000E+01  0.8000E+01
    -12.212  0.0000E+00  0.0000E+00  0.8000E+01  0.8000E+01
    -12.102  0.0000E+00  0.0000E+00  0.8000E+01  0.8000E+01
    -11.991  0.0000E+00  0.0000E+00  0.8000E+01  0.8000E+01
    -11.880  0.0000E+00  0.0000E+00  0.8000E+01  0.8000E+01
    -11.769  0.0000E+00  0.0000E+00  0.8000E+01  0.8000E+01
    -11.658  0.0000E+00  0.0000E+00  0.8000E+01  0.8000E+01
    -11.548  0.0000E+00  0.0000E+00  0.8000E+01  0.8000E+01
    -11.437  0.0000E+00  0.0000E+00  0.8000E+01  0.8000E+01
    -11.326  0.0000E+00  0.0000E+00  0.8000E+01  0.8000E+01
    -11.215  0.0000E+00  0.0000E+00  0.8000E+01  0.8000E+01
    -11.105  0.0000E+00  0.0000E+00  0.8000E+01  0.8000E+01
    -10.994  0.0000E+00  0.0000E+00  0.8000E+01  0.8000E+01
    -10.883  0.0000E+00  0.0000E+00  0.8000E+01  0.8000E+01
    -10.772  0.0000E+00  0.0000E+00  0.8000E+01  0.8000E+01
    -10.661  0.0000E+00  0.0000E+00  0.8000E+01  0.8000E+01
    -10.551  0.0000E+00  0.0000E+00  0.8000E+01  0.8000E+01
    -10.440  0.0000E+00  0.0000E+00  0.8000E+01  0.8000E+01
    -10.329  0.0000E+00  0.0000E+00  0.8000E+01  0.8000E+01
    -10.218  0.0000E+00  0.0000E+00  0.8000E+01  0.8000E+01
    -10.108  0.0000E+00  0.0000E+00  0.8000E+01  0.8000E+01
     -9.997  0.0000E+00  0.9520E+01  0.1100E+02  0.9997E+01
     -9.886  0.0000E+00  0.0000E+00  0.1100E+02  0.1100E+02
     -9.775  0.1352E+02  0.2321E+02  0.1201E+02  0.1180E+02
     -9.664  0.0000E+00  0.0000E+00  0.1300E+02  0.1300E+02
     -9.554  0.0000E+00  0.0000E+00  0.1300E+02  0.1300E+02
     -9.443  0.0000E+00  0.0000E+00  0.1300E+02  0.1300E+02
     -9.332  0.0000E+00  0.0000E+00  0.1300E+02  0.1300E+02
     -9.221  0.0000E+00  0.0000E+00  0.1300E+02  0.1300E+02
     -9.111  0.0000E+00  0.0000E+00  0.1300E+02  0.1300E+02
     -9.000  0.0000E+00  0.0000E+00  0.1300E+02  0.1300E+02
     -8.889  0.0000E+00  0.0000E+00  0.1300E+02  0.1300E+02
     -8.778  0.0000E+00  0.0000E+00  0.1300E+02  0.1300E+02
     -8.667  0.0000E+00  0.0000E+00  0.1300E+02  0.1300E+02
     -8.557  0.0000E+00  0.0000E+00  0.1300E+02  0.1300E+02
     -8.446  0.0000E+00  0.0000E+00  0.1300E+02  0.1300E+02
     -8.335  0.0000E+00  0.0000E+00  0.1300E+02  0.1300E+02
     -8.224  0.0000E+00  0.0000E+00  0.1300E+02  0.1300E+02
     -8.113  0.0000E+00  0.0000E+00  0.1300E+02  0.1300E+02
     -8.003  0.0000E+00  0.0000E+00  0.1300E+02  0.1300E+02
     -7.892  0.0000E+00  0.0000E+00  0.1300E+02  0.1300E+02
     -7.781  0.0000E+00  0.0000E+00  0.1300E+02  0.1300E+02
     -7.670  0.0000E+00  0.0000E+00  0.1300E+02  0.1300E+02
     -7.560  0.0000E+00  0.0000E+00  0.1300E+02  0.1300E+02
     -7.449  0.0000E+00  0.0000E+00  0.1300E+02  0.1300E+02
     -7.338  0.0000E+00  0.0000E+00  0.1300E+02  0.1300E+02
     -7.227  0.0000E+00  0.0000E+00  0.1300E+02  0.1300E+02
     -7.116  0.0000E+00  0.0000E+00  0.1300E+02  0.1300E+02
     -7.006  0.0000E+00  0.0000E+00  0.1300E+02  0.1300E+02
     -6.895  0.0000E+00  0.0000E+00  0.1300E+02  0.1300E+02
     -6.784  0.0000E+00  0.0000E+00  0.1300E+02  0.1300E+02
     -6.673  0.0000E+00  0.0000E+00  0.1300E+02  0.1300E+02
     -6.563  0.0000E+00  0.0000E+00  0.1300E+02  0.1300E+02
     -6.452  0.0000E+00  0.0000E+00  0.1300E+02  0.1300E+02
     -6.341  0.0000E+00  0.0000E+00  0.1300E+02  0.1300E+02
     -6.230  0.0000E+00  0.0000E+00  0.1300E+02  0.1300E+02
     -6.119  0.0000E+00  0.0000E+00  0.1300E+02  0.1300E+02
     -6.009  0.0000E+00  0.0000E+00  0.1300E+02  0.1300E+02
     -5.898  0.0000E+00  0.0000E+00  0.1300E+02  0.1300E+02
     -5.787  0.0000E+00  0.0000E+00  0.1300E+02  0.1300E+02
     -5.676  0.0000E+00  0.0000E+00  0.1300E+02  0.1300E+02
     -5.566  0.0000E+00  0.0000E+00  0.1300E+02  0.1300E+02
     -5.455  0.0000E+00  0.0000E+00  0.1300E+02  0.1300E+02
     -5.344  0.0000E+00  0.0000E+00  0.1300E+02  0.1300E+02
     -5.233  0.0000E+00  0.0000E+00  0.1300E+02  0.1300E+02
     -5.122  0.0000E+00  0.0000E+00  0.1300E+02  0.1300E+02
     -5.012  0.0000E+00  0.0000E+00  0.1300E+02  0.1300E+02
     -4.901  0.0000E+00  0.0000E+00  0.1300E+02  0.1300E+02
     -4.790  0.0000E+00  0.0000E+00  0.1300E+02  0.1300E+02
     -4.679  0.0000E+00  0.0000E+00  0.1300E+02  0.1300E+02
     -4.569  0.0000E+00  0.0000E+00  0.1300E+02  0.1300E+02
     -4.458  0.0000E+00  0.0000E+00  0.1300E+02  0.1300E+02
     -4.347  0.0000E+00  0.0000E+00  0.1300E+02  0.1300E+02
     -4.236  0.0000E+00  0.0000E+00  0.1300E+02  0.1300E+02
     -4.125  0.0000E+00  0.0000E+00  0.1300E+02  0.1300E+02
     -4.015  0.0000E+00  0.0000E+00  0.1300E+02  0.1300E+02
     -3.904  0.0000E+00  0.0000E+00  0.1300E+02  0.1300E+02
     -3.793  0.6211E+00  0.0000E+00  0.1301E+02  0.1300E+02
     -3.682  0.1487E+01  0.0000E+00  0.1313E+02  0.1300E+02
     -3.571  0.2327E+01  0.0000E+00  0.1337E+02  0.1300E+02
     -3.461  0.1987E+01  0.2204E+00  0.1361E+02  0.1300E+02
     -3.350  0.1325E+01  0.1346E+01  0.1379E+02  0.1310E+02
     -3.239  0.6976E+00  0.2792E+01  0.1391E+02  0.1332E+02
     -3.128  0.6564E+00  0.2442E+01  0.1396E+02  0.1361E+02
     -3.018  0.1273E+01  0.1261E+01  0.1407E+02  0.1383E+02
     -2.907  0.2018E+01  0.6214E+00  0.1426E+02  0.1393E+02
     -2.796  0.2490E+01  0.2877E+00  0.1451E+02  0.1398E+02
     -2.685  0.2576E+01  0.1308E-01  0.1488E+02  0.1400E+02
     -2.574  0.2619E+01  0.3950E+00  0.1504E+02  0.1400E+02
     -2.464  0.5076E+01  0.1361E+01  0.1565E+02  0.1410E+02
     -2.353  0.3163E+01  0.2841E+01  0.1610E+02  0.1435E+02
     -2.242  0.7203E+01  0.2683E+01  0.1695E+02  0.1467E+02
     -2.131  0.5887E+01  0.3471E+01  0.1771E+02  0.1498E+02
     -2.021  0.5272E+01  0.6772E+01  0.1827E+02  0.1548E+02
     -1.910  0.6148E+01  0.5216E+01  0.1897E+02  0.1617E+02
     -1.799  0.4892E+01  0.3702E+01  0.1965E+02  0.1667E+02
     -1.688  0.3893E+01  0.6136E+01  0.2011E+02  0.1723E+02
     -1.577  0.7052E+01  0.8717E+01  0.2076E+02  0.1809E+02
     -1.467  0.4170E+01  0.4648E+01  0.2125E+02  0.1892E+02
     -1.356  0.3970E+01  0.2605E+01  0.2174E+02  0.1925E+02
     -1.245  0.4891E+01  0.5398E+01  0.2220E+02  0.1974E+02
     -1.134  0.3078E+01  0.7262E+01  0.2267E+02  0.2041E+02
     -1.024  0.6496E+01  0.5661E+01  0.2326E+02  0.2128E+02
     -0.913  0.6161E+01  0.4316E+01  0.2391E+02  0.2171E+02
     -0.802  0.5692E+01  0.4162E+01  0.2450E+02  0.2222E+02
     -0.691  0.6107E+01  0.4886E+01  0.2505E+02  0.2265E+02
     -0.580  0.5826E+01  0.2913E+01  0.2588E+02  0.2313E+02
     -0.470  0.5744E+01  0.7908E+01  0.2648E+02  0.2373E+02
     -0.359  0.4183E+01  0.6400E+01  0.2711E+02  0.2441E+02
     -0.248  0.5362E+01  0.5634E+01  0.2761E+02  0.2532E+02
     -0.137  0.2238E+01  0.4977E+01  0.2801E+02  0.2594E+02
     -0.026  0.2828E+01  0.3796E+01  0.2827E+02  0.2643E+02
      0.084  0.3365E+01  0.5376E+01  0.2862E+02  0.2694E+02
      0.195  0.4221E+01  0.6369E+01  0.2900E+02  0.2745E+02
      0.306  0.4231E+01  0.4242E+01  0.2950E+02  0.2799E+02
      0.417  0.7225E+01  0.3983E+01  0.3015E+02  0.2845E+02
      0.527  0.4597E+01  0.5473E+01  0.3074E+02  0.2898E+02
      0.638  0.5004E+01  0.6143E+01  0.3128E+02  0.2954E+02
      0.749  0.5819E+01  0.6165E+01  0.3192E+02  0.3034E+02
      0.860  0.4905E+01  0.6495E+01  0.3255E+02  0.3105E+02
      0.971  0.5825E+01  0.6790E+01  0.3314E+02  0.3178E+02
      1.081  0.3840E+01  0.6780E+01  0.3365E+02  0.3259E+02
      1.192  0.4144E+01  0.5629E+01  0.3415E+02  0.3341E+02
      1.303  0.6193E+01  0.3615E+01  0.3467E+02  0.3391E+02
      1.414  0.5062E+01  0.4523E+01  0.3527E+02  0.3444E+02
      1.524  0.3704E+01  0.5489E+01  0.3581E+02  0.3500E+02
      1.635  0.6894E+01  0.6452E+01  0.3636E+02  0.3580E+02
      1.746  0.6394E+01  0.3612E+01  0.3707E+02  0.3632E+02
      1.857  0.4826E+01  0.3108E+01  0.3781E+02  0.3673E+02
      1.968  0.5443E+01  0.7969E+00  0.3833E+02  0.3694E+02
      2.078  0.2281E+01  0.1946E+00  0.3874E+02  0.3700E+02
      2.189  0.2114E+01  0.0000E+00  0.3898E+02  0.3700E+02
      2.300  0.3102E+01  0.0000E+00  0.3923E+02  0.3700E+02
      2.411  0.4423E+01  0.0000E+00  0.3976E+02  0.3700E+02
      2.521  0.8155E+00  0.0000E+00  0.3996E+02  0.3700E+02
      2.632  0.6488E-01  0.0000E+00  0.4000E+02  0.3700E+02
      2.743  0.4410E+00  0.0000E+00  0.4003E+02  0.3700E+02
      2.854  0.9308E+00  0.0000E+00  0.4010E+02  0.3700E+02
      2.965  0.2069E+01  0.0000E+00  0.4026E+02  0.3700E+02
      3.075  0.3795E+01  0.0000E+00  0.4056E+02  0.3700E+02
      3.186  0.1958E+01  0.0000E+00  0.4098E+02  0.3700E+02
      3.297  0.3258E+01  0.0000E+00  0.4117E+02  0.3700E+02
      3.408  0.3884E+01  0.0000E+00  0.4160E+02  0.3700E+02
      3.519  0.1732E+01  0.0000E+00  0.4194E+02  0.3700E+02
      3.629  0.0000E+00  0.0000E+00  0.4200E+02  0.3700E+02
      3.740  0.0000E+00  0.0000E+00  0.4200E+02  0.3700E+02
      3.851  0.0000E+00  0.0000E+00  0.4200E+02  0.3700E+02
      3.962  0.9558E+00  0.0000E+00  0.4204E+02  0.3700E+02
      4.072  0.1771E+01  0.0000E+00  0.4218E+02  0.3700E+02
      4.183  0.3474E+01  0.0000E+00  0.4246E+02  0.3700E+02
      4.294  0.3158E+01  0.0000E+00  0.4294E+02  0.3700E+02
      4.405  0.2498E+01  0.0000E+00  0.4319E+02  0.3700E+02
      4.516  0.2458E+01  0.0000E+00  0.4351E+02  0.3700E+02
      4.626  0.2477E+01  0.0000E+00  0.4377E+02  0.3700E+02
      4.737  0.8001E+00  0.0000E+00  0.4398E+02  0.3700E+02
      4.848  0.0000E+00  0.0000E+00  0.4400E+02  0.3700E+02
      4.959  0.1010E+01  0.0000E+00  0.4401E+02  0.3700E+02
      5.069  0.5033E+01  0.0000E+00  0.4426E+02  0.3700E+02
      5.180  0.5468E+01  0.3102E+01  0.4500E+02  0.3702E+02
      5.291  0.3135E+01  0.3410E+01  0.4562E+02  0.3747E+02
      5.402  0.4618E+01  0.3386E+01  0.4598E+02  0.3778E+02
      5.513  0.4148E+01  0.5570E+01  0.4645E+02  0.3829E+02
      5.623  0.5606E+01  0.2709E+01  0.4699E+02  0.3885E+02
      5.734  0.6992E+01  0.7939E+00  0.4770E+02  0.3905E+02
      5.845  0.8976E+01  0.7290E+01  0.4868E+02  0.3956E+02
      5.956  0.3306E+01  0.2106E+01  0.4988E+02  0.4005E+02
      6.066  0.2249E+00  0.8328E+01  0.5000E+02  0.4043E+02
      6.177  0.0000E+00  0.1051E+02  0.5000E+02  0.4132E+02
      6.288  0.0000E+00  0.1048E+02  0.5000E+02  0.4242E+02
      6.399  0.0000E+00  0.8372E+01  0.5000E+02  0.4369E+02
      6.510  0.1051E+00  0.8316E+01  0.5000E+02  0.4447E+02
      6.620  0.1360E+01  0.7250E+01  0.5004E+02  0.4584E+02
      6.731  0.2525E+01  0.1085E+02  0.5025E+02  0.4679E+02
      6.842  0.3468E+01  0.0000E+00  0.5058E+02  0.4700E+02
      6.953  0.2450E+01  0.3395E-01  0.5094E+02  0.4700E+02
      7.064  0.6967E+01  0.1855E+00  0.5147E+02  0.4701E+02
      7.174  0.0000E+00  0.5520E+00  0.5200E+02  0.4705E+02
      7.285  0.0000E+00  0.2181E+01  0.5200E+02  0.4718E+02
      7.396  0.0000E+00  0.1357E+01  0.5200E+02  0.4738E+02
      7.507  0.1102E+00  0.1212E+01  0.5201E+02  0.4752E+02
      7.617  0.1392E+00  0.1286E+01  0.5202E+02  0.4766E+02
      7.728  0.1909E+00  0.1772E+01  0.5204E+02  0.4784E+02
      7.839  0.2454E+00  0.9062E+01  0.5206E+02  0.4817E+02
      7.950  0.3306E+00  0.7515E+01  0.5209E+02  0.4918E+02
      8.061  0.3946E+00  0.2552E+01  0.5213E+02  0.4980E+02
      8.171  0.4517E+00  0.1543E+01  0.5218E+02  0.5001E+02
      8.282  0.5181E+00  0.1994E+01  0.5224E+02  0.5018E+02
      8.393  0.6053E+00  0.2352E+01  0.5230E+02  0.5045E+02
      8.504  0.7129E+00  0.2542E+01  0.5237E+02  0.5071E+02
      8.614  0.9554E+00  0.2825E+01  0.5246E+02  0.5107E+02
      8.725  0.1422E+01  0.4107E+01  0.5259E+02  0.5152E+02
      8.836  0.1620E+01  0.3220E+01  0.5276E+02  0.5182E+02
      8.947  0.1270E+01  0.4038E+01  0.5291E+02  0.5214E+02
      9.058  0.0000E+00  0.1964E+01  0.5300E+02  0.5244E+02
      9.168  0.0000E+00  0.1762E+01  0.5300E+02  0.5265E+02
      9.279  0.0000E+00  0.1142E+01  0.5300E+02  0.5282E+02
      9.390  0.0000E+00  0.6838E+00  0.5300E+02  0.5292E+02
      9.501  0.0000E+00  0.3914E+00  0.5300E+02  0.5298E+02
      9.611  0.0000E+00  0.0000E+00  0.5300E+02  0.5300E+02
      9.722  0.0000E+00  0.0000E+00  0.5300E+02  0.5300E+02
      9.833  0.0000E+00  0.0000E+00  0.5300E+02  0.5300E+02
      9.944  0.0000E+00  0.0000E+00  0.5300E+02  0.5300E+02
     10.055  0.0000E+00  0.0000E+00  0.5300E+02  0.5300E+02
     10.165  0.2631E-01  0.0000E+00  0.5300E+02  0.5300E+02
     10.276  0.1823E+00  0.3976E-01  0.5301E+02  0.5300E+02
     10.387  0.2877E+00  0.1756E+00  0.5304E+02  0.5301E+02
     10.498  0.5133E+00  0.2697E+00  0.5308E+02  0.5304E+02
     10.609  0.5881E+00  0.4558E+00  0.5314E+02  0.5308E+02
     10.719  0.7492E+00  0.6132E+00  0.5322E+02  0.5314E+02
     10.830  0.8998E+00  0.6588E+00  0.5331E+02  0.5321E+02
     10.941  0.1210E+01  0.8509E+00  0.5342E+02  0.5329E+02
     11.052  0.1219E+01  0.1021E+01  0.5356E+02  0.5339E+02
     11.162  0.9575E+00  0.1322E+01  0.5368E+02  0.5352E+02
     11.273  0.7484E+00  0.1085E+01  0.5377E+02  0.5366E+02
     11.384  0.6793E+00  0.8217E+00  0.5385E+02  0.5377E+02
     11.495  0.1325E+01  0.7311E+00  0.5395E+02  0.5385E+02
     11.606  0.1183E+01  0.1188E+01  0.5408E+02  0.5396E+02
     11.716  0.9136E+00  0.9590E+00  0.5420E+02  0.5409E+02
     11.827  0.8230E+00  0.8577E+00  0.5429E+02  0.5418E+02
     11.938  0.9980E+00  0.1021E+01  0.5440E+02  0.5429E+02
     12.049  0.1056E+01  0.9963E+00  0.5451E+02  0.5440E+02
     12.159  0.1114E+01  0.1103E+01  0.5463E+02  0.5451E+02
     12.270  0.1102E+01  0.1127E+01  0.5475E+02  0.5464E+02
     12.381  0.1143E+01  0.1113E+01  0.5488E+02  0.5476E+02
     12.492  0.1151E+01  0.1168E+01  0.5501E+02  0.5489E+02
     12.603  0.1091E+01  0.1165E+01  0.5513E+02  0.5502E+02
     12.713  0.1263E+01  0.1118E+01  0.5525E+02  0.5515E+02
     12.824  0.1490E+01  0.1326E+01  0.5541E+02  0.5529E+02
     12.935  0.1721E+01  0.1367E+01  0.5559E+02  0.5544E+02
     13.046  0.1361E+01  0.1676E+01  0.5577E+02  0.5560E+02
     13.156  0.7416E+00  0.1347E+01  0.5589E+02  0.5579E+02
     13.267  0.4894E+00  0.7990E+00  0.5596E+02  0.5590E+02
     13.378  0.1678E+00  0.4657E+00  0.5599E+02  0.5597E+02
     13.489  0.0000E+00  0.3147E-01  0.5600E+02  0.5600E+02
     13.600  0.0000E+00  0.0000E+00  0.5600E+02  0.5600E+02
     13.710  0.0000E+00  0.0000E+00  0.5600E+02  0.5600E+02
     13.821  0.0000E+00  0.0000E+00  0.5600E+02  0.5600E+02
     13.932  0.0000E+00  0.0000E+00  0.5600E+02  0.5600E+02
     14.043  0.0000E+00  0.0000E+00  0.5600E+02  0.5600E+02
     14.154  0.0000E+00  0.0000E+00  0.5600E+02  0.5600E+02
     14.264  0.0000E+00  0.0000E+00  0.5600E+02  0.5600E+02
     14.375  0.0000E+00  0.0000E+00  0.5600E+02  0.5600E+02
     14.486  0.0000E+00  0.0000E+00  0.5600E+02  0.5600E+02
     14.597  0.0000E+00  0.0000E+00  0.5600E+02  0.5600E+02
     14.707  0.0000E+00  0.0000E+00  0.5600E+02  0.5600E+02
     14.818  0.0000E+00  0.0000E+00  0.5600E+02  0.5600E+02
     14.929  0.0000E+00  0.0000E+00  0.5600E+02  0.5600E+02
     15.040  0.0000E+00  0.0000E+00  0.5600E+02  0.5600E+02
     15.151  0.0000E+00  0.0000E+00  0.5600E+02  0.5600E+02
     15.261  0.0000E+00  0.0000E+00  0.5600E+02  0.5600E+02
     15.372  0.0000E+00  0.0000E+00  0.5600E+02  0.5600E+02
     15.483  0.0000E+00  0.0000E+00  0.5600E+02  0.5600E+02
     15.594  0.0000E+00  0.0000E+00  0.5600E+02  0.5600E+02
     15.59365425    -17.64066643  301      3.65699407      1.00000000
    -17.641  0.0000E+00  0.0000E+00  0.0000E+00  0.0000E+00  0.0000E+00  0.0000E+00  0.0000E+00  0.0000E+00  0.0000E+00  0.0000E+00  0.0000E+00  0.0000E+00  0.0000E+00  0.0000E+00  0.0000E+00  0.0000E+00  0.0000E+00  0.0000E+00
    -17.530  0.0000E+00  0.0000E+00  0.0000E+00  0.0000E+00  0.0000E+00  0.0000E+00  0.0000E+00  0.0000E+00  0.0000E+00  0.0000E+00  0.0000E+00  0.0000E+00  0.0000E+00  0.0000E+00  0.0000E+00  0.0000E+00  0.0000E+00  0.0000E+00
    -17.419  0.0000E+00  0.0000E+00  0.0000E+00  0.0000E+00  0.0000E+00  0.0000E+00  0.0000E+00  0.0000E+00  0.0000E+00  0.0000E+00  0.0000E+00  0.0000E+00  0.0000E+00  0.0000E+00  0.0000E+00  0.0000E+00  0.0000E+00  0.0000E+00
    -17.308  0.0000E+00  0.0000E+00  0.0000E+00  0.0000E+00  0.0000E+00  0.0000E+00  0.0000E+00  0.0000E+00  0.0000E+00  0.0000E+00  0.0000E+00  0.0000E+00  0.0000E+00  0.0000E+00  0.0000E+00  0.0000E+00  0.0000E+00  0.0000E+00
    -17.198  0.0000E+00  0.0000E+00  0.0000E+00  0.0000E+00  0.0000E+00  0.0000E+00  0.0000E+00  0.0000E+00  0.0000E+00  0.0000E+00  0.0000E+00  0.0000E+00  0.0000E+00  0.0000E+00  0.0000E+00  0.0000E+00  0.0000E+00  0.0000E+00
    -17.087  0.0000E+00  0.0000E+00  0.0000E+00  0.0000E+00  0.0000E+00  0.0000E+00  0.0000E+00  0.0000E+00  0.0000E+00  0.0000E+00  0.0000E+00  0.0000E+00  0.0000E+00  0.0000E+00  0.0000E+00  0.0000E+00  0.0000E+00  0.0000E+00
    -16.976  0.0000E+00  0.0000E+00  0.0000E+00  0.0000E+00  0.0000E+00  0.0000E+00  0.0000E+00  0.0000E+00  0.0000E+00  0.0000E+00  0.0000E+00  0.0000E+00  0.0000E+00  0.0000E+00  0.0000E+00  0.0000E+00  0.0000E+00  0.0000E+00
    -16.865  0.0000E+00  0.0000E+00  0.0000E+00  0.0000E+00  0.0000E+00  0.0000E+00  0.0000E+00  0.0000E+00  0.0000E+00  0.0000E+00  0.0000E+00  0.0000E+00  0.0000E+00  0.0000E+00  0.0000E+00  0.0000E+00  0.0000E+00  0.0000E+00
    -16.754  0.0000E+00  0.0000E+00  0.0000E+00  0.0000E+00  0.0000E+00  0.0000E+00  0.0000E+00  0.0000E+00  0.0000E+00  0.0000E+00  0.0000E+00  0.0000E+00  0.0000E+00  0.0000E+00  0.0000E+00  0.0000E+00  0.0000E+00  0.0000E+00
    -16.644  0.0000E+00  0.0000E+00  0.0000E+00  0.0000E+00  0.0000E+00  0.0000E+00  0.0000E+00  0.0000E+00  0.0000E+00  0.0000E+00  0.0000E+00  0.0000E+00  0.0000E+00  0.0000E+00  0.0000E+00  0.0000E+00  0.0000E+00  0.0000E+00
    -16.533  0.0000E+00  0.0000E+00  0.0000E+00  0.0000E+00  0.0000E+00  0.0000E+00  0.0000E+00  0.0000E+00  0.0000E+00  0.0000E+00  0.0000E+00  0.0000E+00  0.0000E+00  0.0000E+00  0.0000E+00  0.0000E+00  0.0000E+00  0.0000E+00
    -16.422  0.0000E+00  0.0000E+00  0.0000E+00  0.0000E+00  0.0000E+00  0.0000E+00  0.0000E+00  0.0000E+00  0.0000E+00  0.0000E+00  0.0000E+00  0.0000E+00  0.0000E+00  0.0000E+00  0.0000E+00  0.0000E+00  0.0000E+00  0.0000E+00
    -16.311  0.0000E+00  0.0000E+00  0.0000E+00  0.0000E+00  0.0000E+00  0.0000E+00  0.0000E+00  0.0000E+00  0.0000E+00  0.0000E+00  0.0000E+00  0.0000E+00  0.0000E+00  0.0000E+00  0.0000E+00  0.0000E+00  0.0000E+00  0.0000E+00
    -16.201  0.0000E+00  0.0000E+00  0.0000E+00  0.0000E+00  0.0000E+00  0.0000E+00  0.0000E+00  0.0000E+00  0.0000E+00  0.0000E+00  0.0000E+00  0.0000E+00  0.0000E+00  0.0000E+00  0.0000E+00  0.0000E+00  0.0000E+00  0.0000E+00
    -16.090  0.0000E+00  0.0000E+00  0.0000E+00  0.0000E+00  0.0000E+00  0.0000E+00  0.0000E+00  0.0000E+00  0.0000E+00  0.0000E+00  0.0000E+00  0.0000E+00  0.0000E+00  0.0000E+00  0.0000E+00  0.0000E+00  0.0000E+00  0.0000E+00
    -15.979  0.0000E+00  0.0000E+00  0.0000E+00  0.0000E+00  0.0000E+00  0.0000E+00  0.0000E+00  0.0000E+00  0.0000E+00  0.0000E+00  0.0000E+00  0.0000E+00  0.0000E+00  0.0000E+00  0.0000E+00  0.0000E+00  0.0000E+00  0.0000E+00
    -15.868  0.0000E+00  0.0000E+00  0.0000E+00  0.0000E+00  0.0000E+00  0.0000E+00  0.0000E+00  0.0000E+00  0.0000E+00  0.0000E+00  0.0000E+00  0.0000E+00  0.0000E+00  0.0000E+00  0.0000E+00  0.0000E+00  0.0000E+00  0.0000E+00
    -15.757  0.0000E+00  0.0000E+00  0.0000E+00  0.0000E+00  0.0000E+00  0.0000E+00  0.0000E+00  0.0000E+00  0.0000E+00  0.0000E+00  0.0000E+00  0.0000E+00  0.0000E+00  0.0000E+00  0.0000E+00  0.0000E+00  0.0000E+00  0.0000E+00
    -15.647  0.0000E+00  0.0000E+00  0.0000E+00  0.0000E+00  0.0000E+00  0.0000E+00  0.0000E+00  0.0000E+00  0.0000E+00  0.0000E+00  0.0000E+00  0.0000E+00  0.0000E+00  0.0000E+00  0.0000E+00  0.0000E+00  0.0000E+00  0.0000E+00
    -15.536  0.1524E-01  0.2411E-01  0.4001E-04  0.1531E-03  0.1257E-03  0.3659E-03  0.6327E-04  0.2857E-03  0.4152E-07  0.2180E-06  0.8416E-06  0.5220E-05  0.2391E-03  0.1286E-03  0.7640E-07  0.1170E-05  0.2049E-05  0.4970E-04
    -15.425  0.3321E-01  0.3973E-01  0.2913E-03  0.4945E-03  0.7669E-03  0.9551E-03  0.4342E-03  0.9181E-03  0.7766E-06  0.1340E-05  0.1516E-04  0.2986E-04  0.6068E-03  0.2648E-03  0.1192E-05  0.3959E-05  0.5218E-04  0.1666E-03
    -15.314  0.6210E-01  0.5553E-01  0.7451E-03  0.1060E-02  0.2098E-02  0.1492E-02  0.1053E-02  0.1906E-02  0.3111E-05  0.4265E-05  0.6033E-04  0.8753E-04  0.1231E-02  0.5398E-03  0.6277E-05  0.9635E-05  0.2913E-03  0.3875E-03
    -15.203  0.7546E-01  0.7972E-01  0.1296E-02  0.1542E-02  0.2504E-02  0.2073E-02  0.1653E-02  0.2658E-02  0.9128E-05  0.1392E-04  0.1514E-03  0.2519E-03  0.2631E-02  0.1423E-02  0.2101E-04  0.2410E-04  0.9927E-03  0.9241E-03
    -15.093  0.1004E+00  0.7276E-01  0.1452E-02  0.1350E-02  0.8446E-02  0.9716E-02  0.1495E-02  0.2280E-02  0.1537E-04  0.1699E-04  0.3650E-03  0.7079E-03  0.4875E-02  0.1933E-02  0.4725E-04  0.4566E-04  0.2301E-02  0.1725E-02
    -14.982  0.5569E-01  0.2687E-01  0.1106E-02  0.7916E-03  0.1502E-01  0.1593E-01  0.9742E-03  0.1693E-02  0.2028E-04  0.1677E-04  0.1312E-02  0.1801E-02  0.2018E-02  0.8771E-03  0.2964E-04  0.3636E-04  0.1194E-02  0.1275E-02
    -14.871  0.9957E-02  0.1861E-01  0.1817E-02  0.2554E-01  0.2442E-01  0.2708E-01  0.1167E-02  0.1912E-01  0.2563E-04  0.7292E-04  0.4260E-02  0.8324E-02  0.2700E-03  0.2933E-02  0.2522E-04  0.1782E-03  0.6809E-03  0.6747E-02
    -14.760  0.1306E-01  0.2195E-01  0.1969E-01  0.2285E-01  0.3380E-01  0.4687E-01  0.5208E-02  0.2061E-01  0.1105E-03  0.3884E-03  0.2436E-01  0.6112E-01  0.2900E-02  0.7296E-02  0.1557E-03  0.4110E-03  0.6254E-02  0.1501E-01
    -14.650  0.2119E-01  0.4099E-01  0.2530E-01  0.1939E-01  0.1213E-01  0.5472E-01  0.4099E-02  0.1709E-01  0.6202E-04  0.8284E-04  0.1695E-01  0.1767E-01  0.2496E-02  0.5228E-02  0.9901E-04  0.2806E-03  0.3868E-02  0.1089E-01
    -14.539  0.1161E-01  0.8802E-02  0.1042E+00  0.1979E-01  0.9839E-01  0.7467E-01  0.2086E-01  0.2766E-01  0.4383E-03  0.2802E-03  0.1752E+00  0.8738E-01  0.7557E-02  0.8706E-02  0.3298E-03  0.4354E-03  0.1440E-01  0.1875E-01
    -14.428  0.3194E-02  0.9914E-02  0.9402E-02  0.6520E-02  0.1189E-01  0.2386E-01  0.1439E-01  0.5631E-01  0.6302E-04  0.1070E-03  0.2026E-01  0.2676E-01  0.5732E-02  0.4435E-01  0.2684E-03  0.1890E-02  0.1226E-01  0.9842E-01
    -14.317  0.1359E-01  0.1445E-01  0.4814E-01  0.9003E-01  0.9739E-02  0.2515E-02  0.6683E-01  0.9149E-01  0.3768E-03  0.4768E-03  0.1662E+00  0.1218E+00  0.5924E-01  0.2339E-01  0.2113E-02  0.1154E-02  0.1304E+00  0.6244E-01
    -14.206  0.7982E-02  0.3031E-02  0.3545E-01  0.4290E-02  0.2133E-02  0.1287E-02  0.6222E-01  0.1843E-01  0.1411E-03  0.6866E-04  0.1599E-01  0.1077E-01  0.1335E-01  0.3612E-02  0.4933E-03  0.1339E-03  0.3148E-01  0.9577E-02
    -14.096  0.1054E-01  0.6688E-04  0.1076E-02  0.4354E-05  0.8169E-03  0.2388E-03  0.6896E-01  0.7906E-02  0.6436E-04  0.5514E-06  0.1185E-02  0.1855E-05  0.7905E-02  0.9940E-04  0.3113E-03  0.4655E-05  0.2421E-01  0.2691E-03
    -13.985  0.1095E-02  0.0000E+00  0.3524E-05  0.0000E+00  0.3201E-03  0.0000E+00  0.2822E-01  0.0000E+00  0.1211E-04  0.0000E+00  0.1734E-04  0.0000E+00  0.8041E-03  0.0000E+00  0.3426E-04  0.0000E+00  0.2596E-02  0.0000E+00
    -13.874  0.0000E+00  0.0000E+00  0.0000E+00  0.0000E+00  0.0000E+00  0.0000E+00  0.0000E+00  0.0000E+00  0.0000E+00  0.0000E+00  0.0000E+00  0.0000E+00  0.0000E+00  0.0000E+00  0.0000E+00  0.0000E+00  0.0000E+00  0.0000E+00
    -13.763  0.0000E+00  0.0000E+00  0.0000E+00  0.0000E+00  0.0000E+00  0.0000E+00  0.0000E+00  0.0000E+00  0.0000E+00  0.0000E+00  0.0000E+00  0.0000E+00  0.0000E+00  0.0000E+00  0.0000E+00  0.0000E+00  0.0000E+00  0.0000E+00
    -13.653  0.0000E+00  0.0000E+00  0.0000E+00  0.0000E+00  0.0000E+00  0.0000E+00  0.0000E+00  0.0000E+00  0.0000E+00  0.0000E+00  0.0000E+00  0.0000E+00  0.0000E+00  0.0000E+00  0.0000E+00  0.0000E+00  0.0000E+00  0.0000E+00
    -13.542  0.0000E+00  0.0000E+00  0.0000E+00  0.0000E+00  0.0000E+00  0.0000E+00  0.0000E+00  0.0000E+00  0.0000E+00  0.0000E+00  0.0000E+00  0.0000E+00  0.0000E+00  0.0000E+00  0.0000E+00  0.0000E+00  0.0000E+00  0.0000E+00
    -13.431  0.0000E+00  0.0000E+00  0.0000E+00  0.0000E+00  0.0000E+00  0.0000E+00  0.0000E+00  0.0000E+00  0.0000E+00  0.0000E+00  0.0000E+00  0.0000E+00  0.0000E+00  0.0000E+00  0.0000E+00  0.0000E+00  0.0000E+00  0.0000E+00
    -13.320  0.0000E+00  0.0000E+00  0.0000E+00  0.0000E+00  0.0000E+00  0.0000E+00  0.0000E+00  0.0000E+00  0.0000E+00  0.0000E+00  0.0000E+00  0.0000E+00  0.0000E+00  0.0000E+00  0.0000E+00  0.0000E+00  0.0000E+00  0.0000E+00
    -13.209  0.0000E+00  0.0000E+00  0.0000E+00  0.0000E+00  0.0000E+00  0.0000E+00  0.0000E+00  0.0000E+00  0.0000E+00  0.0000E+00  0.0000E+00  0.0000E+00  0.0000E+00  0.0000E+00  0.0000E+00  0.0000E+00  0.0000E+00  0.0000E+00
    -13.099  0.0000E+00  0.0000E+00  0.0000E+00  0.0000E+00  0.0000E+00  0.0000E+00  0.0000E+00  0.0000E+00  0.0000E+00  0.0000E+00  0.0000E+00  0.0000E+00  0.0000E+00  0.0000E+00  0.0000E+00  0.0000E+00  0.0000E+00  0.0000E+00
    -12.988  0.0000E+00  0.0000E+00  0.0000E+00  0.0000E+00  0.0000E+00  0.0000E+00  0.0000E+00  0.0000E+00  0.0000E+00  0.0000E+00  0.0000E+00  0.0000E+00  0.0000E+00  0.0000E+00  0.0000E+00  0.0000E+00  0.0000E+00  0.0000E+00
    -12.877  0.0000E+00  0.0000E+00  0.0000E+00  0.0000E+00  0.0000E+00  0.0000E+00  0.0000E+00  0.0000E+00  0.0000E+00  0.0000E+00  0.0000E+00  0.0000E+00  0.0000E+00  0.0000E+00  0.0000E+00  0.0000E+00  0.0000E+00  0.0000E+00
    -12.766  0.0000E+00  0.0000E+00  0.0000E+00  0.0000E+00  0.0000E+00  0.0000E+00  0.0000E+00  0.0000E+00  0.0000E+00  0.0000E+00  0.0000E+00  0.0000E+00  0.0000E+00  0.0000E+00  0.0000E+00  0.0000E+00  0.0000E+00  0.0000E+00
    -12.656  0.0000E+00  0.0000E+00  0.0000E+00  0.0000E+00  0.0000E+00  0.0000E+00  0.0000E+00  0.0000E+00  0.0000E+00  0.0000E+00  0.0000E+00  0.0000E+00  0.0000E+00  0.0000E+00  0.0000E+00  0.0000E+00  0.0000E+00  0.0000E+00
    -12.545  0.0000E+00  0.0000E+00  0.0000E+00  0.0000E+00  0.0000E+00  0.0000E+00  0.0000E+00  0.0000E+00  0.0000E+00  0.0000E+00  0.0000E+00  0.0000E+00  0.0000E+00  0.0000E+00  0.0000E+00  0.0000E+00  0.0000E+00  0.0000E+00
    -12.434  0.0000E+00  0.0000E+00  0.0000E+00  0.0000E+00  0.0000E+00  0.0000E+00  0.0000E+00  0.0000E+00  0.0000E+00  0.0000E+00  0.0000E+00  0.0000E+00  0.0000E+00  0.0000E+00  0.0000E+00  0.0000E+00  0.0000E+00  0.0000E+00
    -12.323  0.0000E+00  0.0000E+00  0.0000E+00  0.0000E+00  0.0000E+00  0.0000E+00  0.0000E+00  0.0000E+00  0.0000E+00  0.0000E+00  0.0000E+00  0.0000E+00  0.0000E+00  0.0000E+00  0.0000E+00  0.0000E+00  0.0000E+00  0.0000E+00
    -12.212  0.0000E+00  0.0000E+00  0.0000E+00  0.0000E+00  0.0000E+00  0.0000E+00  0.0000E+00  0.0000E+00  0.0000E+00  0.0000E+00  0.0000E+00  0.0000E+00  0.0000E+00  0.0000E+00  0.0000E+00  0.0000E+00  0.0000E+00  0.0000E+00
    -12.102  0.0000E+00  0.0000E+00  0.0000E+00  0.0000E+00  0.0000E+00  0.0000E+00  0.0000E+00  0.0000E+00  0.0000E+00  0.0000E+00  0.0000E+00  0.0000E+00  0.0000E+00  0.0000E+00  0.0000E+00  0.0000E+00  0.0000E+00  0.0000E+00