unknown system                          
   1.00000000000000     
     3.914854    2.804959    0.025628
    -3.914854    2.804959   -0.025628
     0.035152    0.000000    6.343174
   Cr   In   O 
     3     1     8
Direct
  0.999998  0.999999  0.500000
  0.631458  0.368538  0.736988
  0.368539  0.631457  0.263013
  0.000000  0.000000  0.000000
  0.249464  0.750533  0.484327
  0.726341  0.273656  0.973043
  0.229523  0.243992  0.267820
  0.243993  0.229522  0.732179
  0.770478  0.756007  0.732179
  0.756008  0.770477  0.267820
  0.750534  0.249462  0.515674
  0.273656  0.726341  0.026958
 
   28   28   36
 0.13434     0.22687E-02 0.30322E-02 0.19111E-01 0.69054E-01 0.11598     0.92089E-01 0.51621E-01 0.51034E-01 0.60412E-01
 0.56284E-01 0.40955E-01 0.24123E-01 0.14132E-01 0.11265E-01 0.14131E-01 0.24119E-01 0.40942E-01 0.56246E-01 0.60356E-01
 0.51014E-01 0.51620E-01 0.92089E-01 0.11598     0.69052E-01 0.19111E-01 0.30322E-02 0.22687E-02 0.22687E-02 0.18160E-02
 0.26884E-02 0.14122E-01 0.54521E-01 0.10615     0.10474     0.58942E-01 0.37913E-01 0.30015E-01 0.21192E-01 0.15167E-01
 0.11562E-01 0.11555E-01 0.18110E-01 0.38377E-01 0.80390E-01 0.13358     0.16634     0.16293     0.11865     0.68830E-01
 0.74109E-01 0.11845     0.10095     0.40675E-01 0.84120E-02 0.18561E-02 0.30323E-02 0.26884E-02 0.56634E-02 0.19639E-01
 0.57930E-01 0.10473     0.10786     0.64459E-01 0.35656E-01 0.22476E-01 0.13106E-01 0.97681E-02 0.10983E-01 0.19827E-01
 0.49956E-01 0.12078     0.22121     0.31379     0.36712     0.36759     0.30115     0.16925     0.87244E-01 0.99930E-01
 0.12969     0.87258E-01 0.32116E-01 0.84121E-02 0.19111E-01 0.14122E-01 0.19639E-01 0.39492E-01 0.77085E-01 0.11172    
 0.10519     0.64004E-01 0.35539E-01 0.19590E-01 0.10374E-01 0.89751E-02 0.15022E-01 0.41826E-01 0.12372     0.26300    
 0.40255     0.49768     0.54846     0.56951     0.55130     0.43778     0.21605     0.10530     0.11672     0.13211    
 0.87256E-01 0.40676E-01 0.69062E-01 0.54515E-01 0.57936E-01 0.77076E-01 0.10423     0.11724     0.94620E-01 0.55244E-01
 0.32562E-01 0.18442E-01 0.10057E-01 0.94345E-02 0.21013E-01 0.73825E-01 0.21433     0.39574     0.53804     0.60697    
 0.63261     0.64499     0.65802     0.64686     0.52532     0.24743     0.11338     0.11670     0.12972     0.10094    
 0.11597     0.10615     0.10473     0.11171     0.11729     0.10494     0.73302E-01 0.44310E-01 0.29555E-01 0.16622E-01
 0.94980E-02 0.99132E-02 0.25042E-01 0.98507E-01 0.27525     0.48033     0.61243     0.65578     0.64091     0.61401    
 0.62515     0.66862     0.68064     0.55299     0.24751     0.10529     0.99927E-01 0.11845     0.91891E-01 0.10496    
 0.10763     0.10545     0.94277E-01 0.73569E-01 0.49493E-01 0.34008E-01 0.24179E-01 0.15640E-01 0.92105E-02 0.10372E-01
 0.24585E-01 0.10447     0.29107     0.51608     0.64762     0.67828     0.61946     0.51799     0.48139     0.55824    
 0.65990     0.68086     0.52467     0.21651     0.87047E-01 0.74274E-01 0.51478E-01 0.59095E-01 0.64259E-01 0.64216E-01
 0.55028E-01 0.44623E-01 0.33393E-01 0.28214E-01 0.20594E-01 0.14172E-01 0.87480E-02 0.10371E-01 0.22521E-01 0.89606E-01
 0.27300     0.50286     0.65710     0.69648     0.62518     0.46148     0.34383     0.39531     0.55816     0.66875    
 0.64646     0.43872     0.16866     0.69053E-01 0.51396E-01 0.37552E-01 0.35997E-01 0.35174E-01 0.32833E-01 0.29144E-01
 0.24862E-01 0.20519E-01 0.16108E-01 0.11586E-01 0.87761E-02 0.91156E-02 0.19314E-01 0.63663E-01 0.22851     0.44291    
 0.63626     0.70750     0.67324     0.52661     0.36163     0.34381     0.48145     0.62509     0.65813     0.55085    
 0.30197     0.11802     0.61161E-01 0.29573E-01 0.22769E-01 0.19289E-01 0.18745E-01 0.16390E-01 0.15593E-01 0.13690E-01
 0.12143E-01 0.82687E-02 0.71279E-02 0.73253E-02 0.14365E-01 0.41151E-01 0.15861     0.35230     0.56868     0.68980    
 0.71511     0.64874     0.52668     0.46146     0.51800     0.61390     0.64533     0.56851     0.36952     0.16125    
 0.56208E-01 0.21265E-01 0.13015E-01 0.10470E-01 0.99289E-02 0.95834E-02 0.92971E-02 0.89301E-02 0.84365E-02 0.70512E-02
 0.58957E-02 0.61266E-02 0.98540E-02 0.25792E-01 0.88120E-01 0.24780     0.44461     0.61865     0.70476     0.71517    
 0.67309     0.62518     0.61949     0.64093     0.63260     0.54831     0.36733     0.16624     0.40758E-01 0.15249E-01
 0.97068E-02 0.90311E-02 0.93980E-02 0.99717E-02 0.10122E-01 0.10424E-01 0.93440E-02 0.75347E-02 0.59490E-02 0.57207E-02
 0.72828E-02 0.15418E-01 0.43268E-01 0.13782     0.29693     0.47772     0.61735     0.68999     0.70780     0.69665    
 0.67814     0.65580     0.60691     0.49794     0.31332     0.13398     0.24128E-01 0.11557E-01 0.10987E-01 0.15011E-01
 0.20951E-01 0.25082E-01 0.24940E-01 0.22349E-01 0.18624E-01 0.14164E-01 0.10091E-01 0.73685E-02 0.65180E-02 0.92191E-02
 0.20509E-01 0.58264E-01 0.15453     0.29800     0.44689     0.56850     0.63492     0.65658     0.64789     0.61257    
 0.53789     0.40255     0.22120     0.80377E-01 0.14129E-01 0.11553E-01 0.19821E-01 0.41795E-01 0.73985E-01 0.98155E-01
 0.10340     0.90601E-01 0.65844E-01 0.41425E-01 0.25128E-01 0.15212E-01 0.92307E-02 0.72929E-02 0.10313E-01 0.22712E-01
 0.58332E-01 0.13664     0.24460     0.35259     0.44642     0.50428     0.51529     0.47995     0.39601     0.26298    
 0.12078     0.38378E-01 0.11267E-01 0.18105E-01 0.49942E-01 0.12367     0.21395     0.27573     0.29251     0.27100    
 0.22375     0.15812     0.90145E-01 0.43765E-01 0.20482E-01 0.10308E-01 0.75421E-02 0.10308E-01 0.20480E-01 0.43757E-01
 0.90132E-01 0.15810     0.22371     0.27095     0.29248     0.27575     0.21400     0.12372     0.49960E-01 0.18108E-01
 0.14130E-01 0.38375E-01 0.12075     0.26291     0.39596     0.47995     0.51533     0.50434     0.44646     0.35262    
 0.24464     0.13668     0.58346E-01 0.22710E-01 0.10310E-01 0.72920E-02 0.92311E-02 0.15214E-01 0.25133E-01 0.41430E-01
 0.65842E-01 0.90596E-01 0.10341     0.98183E-01 0.74016E-01 0.41813E-01 0.19828E-01 0.11555E-01 0.24131E-01 0.80392E-01
 0.22121     0.40251     0.53786     0.61256     0.64791     0.65661     0.63494     0.56851     0.44692     0.29805    
 0.15455     0.58257E-01 0.20502E-01 0.92169E-02 0.65182E-02 0.73706E-02 0.10095E-01 0.14169E-01 0.18628E-01 0.22354E-01
 0.24946E-01 0.25093E-01 0.20962E-01 0.15017E-01 0.10989E-01 0.11558E-01 0.40771E-01 0.13404     0.31340     0.49797    
 0.60691     0.65580     0.67815     0.69666     0.70780     0.68998     0.61735     0.47773     0.29692     0.13779    
 0.43256E-01 0.15414E-01 0.72814E-02 0.57212E-02 0.59505E-02 0.75347E-02 0.93428E-02 0.10424E-01 0.10122E-01 0.99721E-02
 0.93989E-02 0.90314E-02 0.97061E-02 0.15249E-01 0.56248E-01 0.16637     0.36751     0.54841     0.63263     0.64094    
 0.61950     0.62518     0.67308     0.71516     0.70474     0.61863     0.44457     0.24776     0.88096E-01 0.25784E-01
 0.98507E-02 0.61259E-02 0.58963E-02 0.70493E-02 0.84330E-02 0.89281E-02 0.92957E-02 0.95830E-02 0.99296E-02 0.10471E-01
 0.13018E-01 0.21272E-01 0.61221E-01 0.16140     0.36973     0.56863     0.64538     0.61392     0.51801     0.46146    
 0.52668     0.64873     0.71510     0.68978     0.56865     0.35226     0.15858     0.41141E-01 0.14362E-01 0.73262E-02
 0.71308E-02 0.82700E-02 0.12146E-01 0.13698E-01 0.15602E-01 0.16401E-01 0.18761E-01 0.19305E-01 0.22790E-01 0.29599E-01
 0.51418E-01 0.11807     0.30206     0.55093     0.65816     0.62509     0.48145     0.34382     0.36163     0.52661    
 0.67324     0.70750     0.63626     0.44291     0.22851     0.63652E-01 0.19311E-01 0.91176E-02 0.87793E-02 0.11587E-01
 0.16116E-01 0.20538E-01 0.24882E-01 0.29164E-01 0.32854E-01 0.35194E-01 0.36017E-01 0.37570E-01 0.51480E-01 0.69053E-01
 0.16865     0.43870     0.64644     0.66874     0.55815     0.39531     0.34383     0.46149     0.62518     0.69649    
 0.65712     0.50290     0.27302     0.89592E-01 0.22515E-01 0.10372E-01 0.87491E-02 0.14164E-01 0.20589E-01 0.28222E-01
 0.33405E-01 0.44638E-01 0.55041E-01 0.64226E-01 0.64265E-01 0.59099E-01 0.91891E-01 0.74275E-01 0.87048E-01 0.21650    
 0.52462     0.68082     0.65988     0.55823     0.48139     0.51800     0.61947     0.67829     0.64764     0.51611    
 0.29107     0.10444     0.24576E-01 0.10371E-01 0.92110E-02 0.15629E-01 0.24166E-01 0.34002E-01 0.49492E-01 0.73576E-01
 0.94286E-01 0.10546     0.10764     0.10496     0.11597     0.11846     0.99929E-01 0.10530     0.24751     0.55293    
 0.68060     0.66861     0.62516     0.61402     0.64092     0.65578     0.61242     0.48031     0.27521     0.98464E-01
 0.25029E-01 0.99125E-02 0.94978E-02 0.16611E-01 0.29539E-01 0.44302E-01 0.73294E-01 0.10494     0.11729     0.11171    
 0.10473     0.10615     0.69062E-01 0.10094     0.12972     0.11670     0.11338     0.24742     0.52526     0.64683    
 0.65804     0.64503     0.63263     0.60696     0.53800     0.39566     0.21426     0.73786E-01 0.21001E-01 0.94334E-02
 0.10055E-01 0.18426E-01 0.32544E-01 0.55236E-01 0.94614E-01 0.11724     0.10423     0.77077E-01 0.57937E-01 0.54515E-01
 0.19111E-01 0.40676E-01 0.87256E-01 0.13211     0.11672     0.10530     0.21603     0.43775     0.55137     0.56963    
 0.54854     0.49770     0.40249     0.26292     0.12366     0.41806E-01 0.15016E-01 0.89747E-02 0.10372E-01 0.19572E-01
 0.35519E-01 0.63998E-01 0.10519     0.11172     0.77084E-01 0.39492E-01 0.19639E-01 0.14122E-01 0.30322E-02 0.84121E-02
 0.32116E-01 0.87259E-01 0.12969     0.99931E-01 0.87243E-01 0.16924     0.30123     0.36778     0.36727     0.31385    
 0.22119     0.12074     0.49937E-01 0.19821E-01 0.10981E-01 0.97685E-02 0.13104E-01 0.22456E-01 0.35638E-01 0.64456E-01
 0.10786     0.10473     0.57930E-01 0.19639E-01 0.56634E-02 0.26883E-02 0.22686E-02 0.18561E-02 0.84121E-02 0.40675E-01
 0.10096     0.11845     0.74110E-01 0.68829E-01 0.11869     0.16307     0.16646     0.13363     0.80400E-01 0.38374E-01
 0.18107E-01 0.11553E-01 0.11561E-01 0.15167E-01 0.21184E-01 0.29988E-01 0.37895E-01 0.58940E-01 0.10475     0.10615    
 0.54521E-01 0.14122E-01 0.26883E-02 0.18160E-02 0.21099E-02 0.15607E-02 0.47925E-02 0.25419E-01 0.77678E-01 0.11736    
 0.86628E-01 0.50481E-01 0.54416E-01 0.68344E-01 0.67804E-01 0.51759E-01 0.30891E-01 0.17004E-01 0.11608E-01 0.11991E-01
 0.17712E-01 0.28391E-01 0.39329E-01 0.44781E-01 0.42846E-01 0.48350E-01 0.88696E-01 0.11637     0.75536E-01 0.24476E-01
 0.46456E-02 0.15814E-02 0.15814E-02 0.17678E-02 0.43534E-02 0.19692E-01 0.63430E-01 0.11018     0.10035     0.55274E-01
 0.37499E-01 0.31520E-01 0.24112E-01 0.17758E-01 0.12742E-01 0.11012E-01 0.14359E-01 0.26792E-01 0.54534E-01 0.93541E-01
 0.12048     0.12028     0.90915E-01 0.58526E-01 0.68930E-01 0.11425     0.10291     0.46178E-01 0.11324E-01 0.25530E-02
 0.46455E-02 0.43617E-02 0.89435E-02 0.26602E-01 0.67347E-01 0.10939     0.10379     0.59749E-01 0.34862E-01 0.23285E-01
 0.13896E-01 0.10007E-01 0.10043E-01 0.15446E-01 0.34908E-01 0.84837E-01 0.16568     0.24818     0.29629     0.29326    
 0.23413     0.13233     0.74274E-01 0.92128E-01 0.12452     0.89370E-01 0.36858E-01 0.11324E-01 0.24476E-01 0.19563E-01
 0.26703E-01 0.49090E-01 0.86576E-01 0.11513     0.10077     0.59506E-01 0.34577E-01 0.20104E-01 0.10687E-01 0.83903E-02
 0.11989E-01 0.29689E-01 0.89076E-01 0.20642     0.33877     0.43825     0.49301     0.50940     0.47562     0.35125    
 0.16709     0.88883E-01 0.10687     0.12649     0.89367E-01 0.46178E-01 0.75553E-01 0.63063E-01 0.67780E-01 0.87089E-01
 0.11114     0.11691     0.88265E-01 0.51351E-01 0.32972E-01 0.20002E-01 0.10359E-01 0.83362E-02 0.15527E-01 0.51606E-01
 0.16593     0.33829     0.49084     0.57635     0.61340     0.62715     0.62718     0.58818     0.43373     0.18994    
 0.95292E-01 0.10682     0.12456     0.10289     0.11635     0.11042     0.11058     0.11653     0.11771     0.10010    
 0.67632E-01 0.42857E-01 0.30990E-01 0.18799E-01 0.10148E-01 0.87873E-02 0.17880E-01 0.69062E-01 0.22282     0.43009    
 0.58369     0.65170     0.66345     0.65514     0.65690     0.66571     0.63403     0.46103     0.19002     0.88905E-01
 0.92093E-01 0.11428     0.88371E-01 0.10243     0.10574     0.10277     0.89489E-01 0.68342E-01 0.46524E-01 0.34748E-01
 0.27569E-01 0.18924E-01 0.10027E-01 0.89709E-02 0.17111E-01 0.71323E-01 0.23834     0.47087     0.62942     0.69247    
 0.68321     0.63822     0.61335     0.63843     0.67011     0.63471     0.43235     0.16781     0.73967E-01 0.69212E-01
 0.48198E-01 0.56145E-01 0.61101E-01 0.60390E-01 0.52037E-01 0.42704E-01 0.34119E-01 0.30538E-01 0.24243E-01 0.16628E-01
 0.94779E-02 0.85713E-02 0.14994E-01 0.57526E-01 0.21955     0.45800     0.64197     0.71470     0.70491     0.63532    
 0.56912     0.57811     0.63821     0.66598     0.58742     0.35261     0.13165     0.58753E-01 0.43431E-01 0.34184E-01
 0.34214E-01 0.33817E-01 0.32891E-01 0.29671E-01 0.26541E-01 0.23276E-01 0.20473E-01 0.14394E-01 0.95284E-02 0.75975E-02
 0.12698E-01 0.39847E-01 0.17605     0.40012     0.61896     0.71847     0.73391     0.67859     0.59686     0.56905    
 0.61355     0.65674     0.62757     0.47440     0.23568     0.89983E-01 0.45587E-01 0.24680E-01 0.20865E-01 0.19412E-01
 0.19979E-01 0.18698E-01 0.18731E-01 0.18046E-01 0.16760E-01 0.11520E-01 0.86816E-02 0.71127E-02 0.10334E-01 0.26907E-01
 0.11553     0.31601     0.54646     0.69060     0.74502     0.73192     0.67877     0.63529     0.63824     0.65485    
 0.62797     0.50748     0.29606     0.11833     0.39207E-01 0.16954E-01 0.11937E-01 0.11137E-01 0.11533E-01 0.11895E-01
 0.11920E-01 0.12909E-01 0.13352E-01 0.11148E-01 0.79921E-02 0.67671E-02 0.81404E-02 0.17796E-01 0.61009E-01 0.21109    
 0.41903     0.60913     0.71197     0.74523     0.73350     0.70487     0.68329     0.66355     0.61331     0.49286    
 0.29640     0.12060     0.28212E-01 0.12478E-01 0.95091E-02 0.99690E-02 0.11079E-01 0.12163E-01 0.13007E-01 0.14454E-01
 0.13813E-01 0.11144E-01 0.83559E-02 0.69132E-02 0.68521E-02 0.11371E-01 0.29461E-01 0.10392     0.26511     0.45642    
 0.60641     0.69090     0.71921     0.71520     0.69213     0.65168     0.57625     0.43879     0.24747     0.93925E-01
 0.17725E-01 0.10601E-01 0.12069E-01 0.17627E-01 0.24415E-01 0.28038E-01 0.28066E-01 0.27346E-01 0.24793E-01 0.18783E-01
 0.12969E-01 0.91283E-02 0.70717E-02 0.78847E-02 0.14765E-01 0.40505E-01 0.12070     0.26673     0.42343     0.54638    
 0.61602     0.64055     0.63002     0.58412     0.49054     0.33867     0.16574     0.54545E-01 0.11989E-01 0.12569E-01
 0.24462E-01 0.51306E-01 0.84439E-01 0.10459     0.10660     0.94025E-01 0.70422E-01 0.45887E-01 0.29155E-01 0.18520E-01
 0.11151E-01 0.76847E-02 0.87060E-02 0.16404E-01 0.40574E-01 0.10261     0.20609     0.31602     0.40672     0.46134    
 0.46937     0.42912     0.33878     0.20647     0.84816E-01 0.26778E-01 0.11610E-01 0.22795E-01 0.64413E-01 0.14690    
 0.23292     0.28245     0.29054     0.26830     0.22001     0.15145     0.88009E-01 0.47274E-01 0.24628E-01 0.12579E-01
 0.79721E-02 0.87026E-02 0.14737E-01 0.29897E-01 0.63191E-01 0.11527     0.16939     0.21575     0.24049     0.22393    
 0.16545     0.89025E-01 0.34922E-01 0.14365E-01 0.17003E-01 0.51021E-01 0.14950     0.29212     0.41267     0.48519    
 0.51141     0.49181     0.42528     0.32587     0.22302     0.13080     0.62897E-01 0.27510E-01 0.12578E-01 0.76858E-02
 0.78960E-02 0.11194E-01 0.17176E-01 0.27109E-01 0.41940E-01 0.58795E-01 0.70132E-01 0.68549E-01 0.51823E-01 0.29702E-01
 0.15439E-01 0.11008E-01 0.30887E-01 0.10313     0.25623     0.42837     0.54726     0.60945     0.63656     0.63964    
 0.61081     0.53259     0.40306     0.26572     0.14624     0.62909E-01 0.24611E-01 0.11153E-01 0.70592E-02 0.69601E-02
 0.83886E-02 0.10168E-01 0.12061E-01 0.14816E-01 0.17495E-01 0.18002E-01 0.15443E-01 0.11990E-01 0.10046E-01 0.12749E-01
 0.51757E-01 0.16175     0.34650     0.51714     0.60915     0.64188     0.65017     0.66150     0.67231     0.65322    
 0.57396     0.43023     0.26558     0.13086     0.47224E-01 0.18541E-01 0.91305E-02 0.68205E-02 0.66000E-02 0.72978E-02
 0.79590E-02 0.85519E-02 0.87137E-02 0.87548E-02 0.83796E-02 0.83921E-02 0.99961E-02 0.17754E-01 0.67914E-01 0.19273    
 0.39765     0.56408     0.62981     0.61282     0.55994     0.54675     0.60234     0.66334     0.66295     0.57389    
 0.40324     0.22273     0.88184E-01 0.29064E-01 0.13002E-01 0.84335E-02 0.81801E-02 0.83933E-02 0.91524E-02 0.95887E-02
 0.10384E-01 0.10144E-01 0.10320E-01 0.10668E-01 0.13937E-01 0.24073E-01 0.68418E-01 0.18354     0.39794     0.58541    
 0.64197     0.57733     0.42714     0.32951     0.39276     0.55701     0.66339     0.65304     0.53308     0.32488    
 0.15241     0.45490E-01 0.18977E-01 0.10933E-01 0.11039E-01 0.11812E-01 0.15031E-01 0.16242E-01 0.18405E-01 0.18716E-01
 0.20189E-01 0.20019E-01 0.23342E-01 0.31446E-01 0.54203E-01 0.13347     0.33108     0.57459     0.66099     0.59651    
 0.39132     0.20800     0.20751     0.39276     0.60233     0.67232     0.61080     0.42531     0.21985     0.70541E-01
 0.24671E-01 0.14052E-01 0.13440E-01 0.16478E-01 0.19676E-01 0.24839E-01 0.28059E-01 0.31158E-01 0.32704E-01 0.34749E-01
 0.34734E-01 0.37657E-01 0.50365E-01 0.75018E-01 0.19349     0.47710     0.66244     0.65991     0.50259     0.28238    
 0.20799     0.32952     0.54672     0.66161     0.63920     0.49306     0.26635     0.95269E-01 0.26962E-01 0.14530E-01
 0.12572E-01 0.18636E-01 0.23695E-01 0.30339E-01 0.34088E-01 0.43003E-01 0.51313E-01 0.59643E-01 0.59582E-01 0.55417E-01
 0.86697E-01 0.72012E-01 0.95062E-01 0.25157     0.56578     0.69223     0.64528     0.50260     0.39134     0.42714    
 0.55993     0.65022     0.63638     0.51192     0.28979     0.10700     0.27987E-01 0.13086E-01 0.12159E-01 0.18238E-01
 0.26182E-01 0.34260E-01 0.47165E-01 0.67456E-01 0.88326E-01 0.10066     0.10390     0.10027     0.11744     0.11530    
 0.97183E-01 0.11414     0.28901     0.59309     0.69244     0.65983     0.59650     0.57731     0.61287     0.64180    
 0.60965     0.48466     0.28329     0.10399     0.28275E-01 0.11960E-01 0.11843E-01 0.18852E-01 0.30406E-01 0.42244E-01
 0.68023E-01 0.99961E-01 0.11708     0.11504     0.10945     0.11012     0.77676E-01 0.10769     0.13023     0.11391    
 0.12267     0.28881     0.56541     0.66254     0.66112     0.64197     0.62979     0.60911     0.54736     0.41247    
 0.23313     0.84315E-01 0.24414E-01 0.11172E-01 0.11681E-01 0.19689E-01 0.32309E-01 0.52367E-01 0.89904E-01 0.11774    
 0.11110     0.86581E-01 0.67348E-01 0.63432E-01 0.25417E-01 0.49318E-01 0.96337E-01 0.13423     0.11389     0.11426    
 0.25182     0.47693     0.57410     0.58544     0.56409     0.51722     0.42822     0.29227     0.14675     0.51382E-01
 0.17614E-01 0.99047E-02 0.10968E-01 0.19759E-01 0.34326E-01 0.60174E-01 0.10234     0.11653     0.87102E-01 0.49093E-01
 0.26600E-01 0.19692E-01 0.47926E-02 0.12213E-01 0.40166E-01 0.96343E-01 0.13024     0.97098E-01 0.94958E-01 0.19372    
 0.33180     0.39792     0.39749     0.34647     0.25625     0.14948     0.64421E-01 0.24455E-01 0.12063E-01 0.95814E-02
 0.12081E-01 0.20516E-01 0.33680E-01 0.61297E-01 0.10612     0.11059     0.67768E-01 0.26703E-01 0.89436E-02 0.43535E-02
 0.15607E-02 0.26747E-02 0.12214E-01 0.49314E-01 0.10769     0.11538     0.72087E-01 0.74861E-01 0.13303     0.18352    
 0.19300     0.16166     0.10318     0.50985E-01 0.22811E-01 0.12562E-01 0.10614E-01 0.12384E-01 0.16829E-01 0.25106E-01
 0.34720E-01 0.55984E-01 0.10207     0.11040     0.63076E-01 0.19562E-01 0.43617E-02 0.17676E-02 0.32108E-02 0.49727E-02
 0.15122E-01 0.47454E-01 0.98001E-01 0.11460     0.73189E-01 0.46012E-01 0.50998E-01 0.63121E-01 0.66939E-01 0.55724E-01
 0.35715E-01 0.19959E-01 0.12480E-01 0.10711E-01 0.12921E-01 0.18069E-01 0.24012E-01 0.29229E-01 0.33471E-01 0.41998E-01
 0.76654E-01 0.11538     0.95579E-01 0.45846E-01 0.14728E-01 0.49569E-02 0.49568E-02 0.62233E-02 0.14796E-01 0.41538E-01
 0.88072E-01 0.11571     0.86851E-01 0.47095E-01 0.33629E-01 0.28305E-01 0.23593E-01 0.18765E-01 0.13594E-01 0.10759E-01
 0.11656E-01 0.17960E-01 0.32642E-01 0.54467E-01 0.70597E-01 0.71911E-01 0.60003E-01 0.46463E-01 0.58287E-01 0.10321    
 0.11170     0.67348E-01 0.25964E-01 0.88993E-02 0.14728E-01 0.14860E-01 0.25359E-01 0.52565E-01 0.93930E-01 0.11688    
 0.90150E-01 0.49587E-01 0.31819E-01 0.21991E-01 0.13772E-01 0.99834E-02 0.91892E-02 0.11862E-01 0.22488E-01 0.51222E-01
 0.10392     0.16410     0.19961     0.19382     0.15221     0.92553E-01 0.58893E-01 0.76832E-01 0.11588     0.10173    
 0.56801E-01 0.25966E-01 0.45846E-01 0.41623E-01 0.53085E-01 0.79684E-01 0.11087     0.11795     0.85670E-01 0.49484E-01
 0.32337E-01 0.20735E-01 0.11684E-01 0.82136E-02 0.93691E-02 0.18938E-01 0.53696E-01 0.13528     0.24376     0.33473    
 0.38685     0.39489     0.34807     0.23979     0.11817     0.69460E-01 0.88727E-01 0.11881     0.10173     0.67347E-01
 0.95607E-01 0.88461E-01 0.95571E-01 0.11223     0.12341     0.10869     0.72305E-01 0.45498E-01 0.34882E-01 0.23828E-01
 0.12576E-01 0.82479E-02 0.10791E-01 0.29084E-01 0.10157     0.24385     0.39308     0.49439     0.54501     0.55913    
 0.54139     0.46797     0.30620     0.13368     0.73919E-01 0.88675E-01 0.11594     0.11167     0.11537     0.11749    
 0.11979     0.12045     0.10991     0.84349E-01 0.57990E-01 0.44040E-01 0.37632E-01 0.26209E-01 0.14327E-01 0.91362E-02
 0.11658E-01 0.35499E-01 0.13681     0.32610     0.49924     0.59921     0.63705     0.64439     0.63779     0.61091    
 0.52553     0.32912     0.13383     0.69452E-01 0.76821E-01 0.10319     0.76349E-01 0.90190E-01 0.93396E-01 0.88146E-01
 0.74281E-01 0.58824E-01 0.47704E-01 0.44632E-01 0.41633E-01 0.31148E-01 0.15999E-01 0.98401E-02 0.11134E-01 0.34217E-01
 0.14147     0.36219     0.55432     0.65812     0.68874     0.68340     0.66877     0.65815     0.62879     0.52654    
 0.30466     0.11880     0.58610E-01 0.58571E-01 0.41829E-01 0.48171E-01 0.51810E-01 0.51461E-01 0.47720E-01 0.45546E-01
 0.45655E-01 0.47443E-01 0.42341E-01 0.31555E-01 0.17463E-01 0.10316E-01 0.10123E-01 0.26794E-01 0.12134     0.34489    
 0.56680     0.68352     0.72040     0.71026     0.68408     0.66877     0.65758     0.61162     0.46682     0.24115    
 0.91943E-01 0.46673E-01 0.33942E-01 0.30203E-01 0.32288E-01 0.34324E-01 0.37541E-01 0.39665E-01 0.42170E-01 0.42520E-01
 0.41288E-01 0.31296E-01 0.18988E-01 0.10344E-01 0.94492E-02 0.19325E-01 0.88453E-01 0.28643     0.53525     0.67904    
 0.73642     0.73624     0.70941     0.68394     0.66924     0.63740     0.54200     0.34665     0.15348     0.59372E-01
 0.29687E-01 0.20155E-01 0.20323E-01 0.22482E-01 0.26455E-01 0.29417E-01 0.33424E-01 0.35304E-01 0.34246E-01 0.26690E-01
 0.18945E-01 0.11148E-01 0.90711E-02 0.14554E-01 0.54343E-01 0.20758     0.45047     0.63460     0.72448     0.74862    
 0.73667     0.71014     0.68343     0.64380     0.56067     0.39248     0.19611     0.70696E-01 0.23905E-01 0.13308E-01
 0.11939E-01 0.13676E-01 0.16324E-01 0.18861E-01 0.20684E-01 0.24051E-01 0.26342E-01 0.23720E-01 0.16926E-01 0.11430E-01
 0.86612E-02 0.11312E-01 0.29567E-01 0.12016     0.31776     0.53008     0.66526     0.72480     0.73550     0.72038    
 0.68899     0.63725     0.54469     0.38686     0.19958     0.70806E-01 0.17965E-01 0.10341E-01 0.98621E-02 0.11824E-01
 0.14267E-01 0.16488E-01 0.18440E-01 0.20749E-01 0.21048E-01 0.19000E-01 0.15504E-01 0.11656E-01 0.85406E-02 0.89539E-02
 0.16382E-01 0.53153E-01 0.17172     0.36006     0.52632     0.63540     0.68062     0.68434     0.65726     0.59924    
 0.49437     0.33535     0.16349     0.54650E-01 0.12930E-01 0.10121E-01 0.13226E-01 0.19508E-01 0.25876E-01 0.28655E-01
 0.28786E-01 0.28994E-01 0.27808E-01 0.23121E-01 0.17748E-01 0.13277E-01 0.95353E-02 0.79414E-02 0.10336E-01 0.22156E-01
 0.65241E-01 0.17287     0.32214     0.44974     0.53051     0.56505     0.55585     0.49976     0.39250     0.24364    
 0.10399     0.32669E-01 0.10710E-01 0.14035E-01 0.28268E-01 0.54456E-01 0.80137E-01 0.91458E-01 0.88305E-01 0.75871E-01
 0.58275E-01 0.41308E-01 0.29242E-01 0.20750E-01 0.13791E-01 0.91951E-02 0.81355E-02 0.11251E-01 0.22179E-01 0.52599E-01
 0.11730     0.20821     0.29337     0.34771     0.35952     0.32522     0.24457     0.13534     0.51191E-01 0.17940E-01
 0.12479E-01 0.27697E-01 0.74578E-01 0.15302     0.22191     0.25176     0.24538     0.21527     0.16626     0.10955    
 0.65632E-01 0.39723E-01 0.24625E-01 0.14712E-01 0.92824E-02 0.81336E-02 0.10324E-01 0.16554E-01 0.30350E-01 0.53974E-01
 0.84974E-01 0.11965     0.14361     0.13743     0.10109     0.53661E-01 0.22505E-01 0.11667E-01 0.19960E-01 0.61306E-01
 0.16443     0.29446     0.39746     0.45518     0.46414     0.42330     0.33949     0.23979     0.15438     0.90818E-01
 0.49437E-01 0.26764E-01 0.14707E-01 0.91975E-02 0.79460E-02 0.88613E-02 0.11053E-01 0.14731E-01 0.20130E-01 0.27069E-01
 0.33521E-01 0.35340E-01 0.29246E-01 0.18947E-01 0.11849E-01 0.10750E-01 0.35687E-01 0.11547     0.26509     0.42205    
 0.53308     0.59064     0.60921     0.59549     0.53770     0.42558     0.28908     0.17907     0.99902E-01 0.49497E-01
 0.24583E-01 0.13811E-01 0.95121E-02 0.86428E-02 0.88157E-02 0.89077E-02 0.90912E-02 0.10143E-01 0.11388E-01 0.11698E-01
 0.10712E-01 0.93816E-02 0.91903E-02 0.13616E-01 0.56019E-01 0.16839     0.34357     0.50520     0.59841     0.63261    
 0.63779     0.63763     0.62783     0.57700     0.45988     0.30709     0.17939     0.90420E-01 0.39970E-01 0.20581E-01
 0.13410E-01 0.11430E-01 0.11356E-01 0.11345E-01 0.10792E-01 0.10112E-01 0.96365E-02 0.90774E-02 0.83603E-02 0.81493E-02
 0.10038E-01 0.18635E-01 0.67200E-01 0.19061     0.38460     0.54864     0.62126     0.61397     0.56758     0.54749    
 0.58227     0.61738     0.58526     0.45885     0.29049     0.15282     0.66726E-01 0.28634E-01 0.18141E-01 0.15301E-01
 0.17507E-01 0.18085E-01 0.18687E-01 0.17535E-01 0.16738E-01 0.14063E-01 0.12701E-01 0.11521E-01 0.13964E-01 0.23418E-01
 0.62322E-01 0.17499     0.37730     0.56572     0.63310     0.58825     0.46104     0.36756     0.41008     0.53933    
 0.61758     0.57683     0.42621     0.23884     0.11028     0.41043E-01 0.23186E-01 0.18943E-01 0.23229E-01 0.27681E-01
 0.31875E-01 0.31212E-01 0.30148E-01 0.26441E-01 0.23813E-01 0.20850E-01 0.21784E-01 0.28604E-01 0.50119E-01 0.12831    
 0.31426     0.55097     0.64796     0.60671     0.43700     0.26595     0.25501     0.41014     0.58207     0.62815    
 0.53655     0.34188     0.16360     0.59765E-01 0.26902E-01 0.22002E-01 0.25564E-01 0.34909E-01 0.39028E-01 0.44235E-01
 0.41350E-01 0.38396E-01 0.34056E-01 0.33035E-01 0.31199E-01 0.34304E-01 0.45935E-01 0.74856E-01 0.19663     0.46151    
 0.64464     0.65877     0.53463     0.34326     0.26591     0.36758     0.54741     0.63807     0.59411     0.42651    
 0.21149     0.77901E-01 0.28278E-01 0.21023E-01 0.23536E-01 0.36116E-01 0.43148E-01 0.47125E-01 0.44031E-01 0.44183E-01
 0.45497E-01 0.49569E-01 0.49437E-01 0.47223E-01 0.73546E-01 0.63844E-01 0.96753E-01 0.26041     0.55444     0.67950    
 0.65051     0.53456     0.43710     0.46103     0.56758     0.63774     0.60911     0.46438     0.24533     0.88092E-01
 0.29033E-01 0.18190E-01 0.21469E-01 0.32041E-01 0.42471E-01 0.45254E-01 0.48599E-01 0.57463E-01 0.72712E-01 0.85219E-01
 0.90621E-01 0.86437E-01 0.11481     0.10190     0.84672E-01 0.11420     0.30008     0.58227     0.68026     0.65870    
 0.60664     0.58808     0.61413     0.63243     0.59123     0.45379     0.25364     0.90312E-01 0.29108E-01 0.16129E-01
 0.18971E-01 0.29357E-01 0.40651E-01 0.45020E-01 0.58737E-01 0.84164E-01 0.10897     0.11775     0.11704     0.11553    
 0.97979E-01 0.11703     0.12034     0.98591E-01 0.12180     0.29972     0.55286     0.64445     0.64839     0.63344    
 0.62122     0.59826     0.53316     0.39734     0.22202     0.80108E-01 0.25834E-01 0.14397E-01 0.16433E-01 0.26267E-01
 0.36896E-01 0.48049E-01 0.74499E-01 0.10997     0.12331     0.11091     0.93914E-01 0.88094E-01 0.47447E-01 0.72550E-01
 0.11123     0.12614     0.98527E-01 0.11448     0.26170     0.46224     0.54941     0.56477     0.54853     0.50564    
 0.42177     0.29476     0.15272     0.54600E-01 0.19462E-01 0.11786E-01 0.13472E-01 0.22827E-01 0.34738E-01 0.51311E-01
 0.87772E-01 0.12051     0.11224     0.79693E-01 0.52557E-01 0.41541E-01 0.15123E-01 0.28031E-01 0.62760E-01 0.11125    
 0.12038     0.84489E-01 0.96192E-01 0.19631     0.31670     0.37935     0.38449     0.34302     0.26515     0.16441    
 0.74596E-01 0.28257E-01 0.13224E-01 0.99194E-02 0.12081E-01 0.20041E-01 0.31839E-01 0.51980E-01 0.93745E-01 0.11977    
 0.95550E-01 0.53085E-01 0.25360E-01 0.14797E-01 0.49728E-02 0.93175E-02 0.28033E-01 0.72537E-01 0.11701     0.10209    
 0.64198E-01 0.74831E-01 0.12662     0.17300     0.19105     0.16876     0.11558     0.61213E-01 0.27736E-01 0.14018E-01
 0.10138E-01 0.10267E-01 0.13206E-01 0.20437E-01 0.30668E-01 0.47999E-01 0.89863E-01 0.11749     0.88487E-01 0.41621E-01
 0.14861E-01 0.62228E-02 0.21267E-01 0.27279E-01 0.48855E-01 0.86413E-01 0.11489     0.96657E-01 0.55556E-01 0.39890E-01
 0.41625E-01 0.47546E-01 0.53181E-01 0.50028E-01 0.36375E-01 0.21973E-01 0.13492E-01 0.10103E-01 0.99000E-02 0.11644E-01
 0.14558E-01 0.19067E-01 0.26136E-01 0.35553E-01 0.58619E-01 0.10109     0.11588     0.86223E-01 0.48808E-01 0.27353E-01
 0.27352E-01 0.31532E-01 0.50544E-01 0.84686E-01 0.11440     0.10502     0.64344E-01 0.38481E-01 0.28576E-01 0.22870E-01
 0.19888E-01 0.17205E-01 0.13444E-01 0.10513E-01 0.98227E-02 0.12159E-01 0.18247E-01 0.27155E-01 0.33709E-01 0.35586E-01
 0.35201E-01 0.35242E-01 0.45927E-01 0.82908E-01 0.11459     0.99247E-01 0.62691E-01 0.36695E-01 0.48806E-01 0.51139E-01
 0.69347E-01 0.99367E-01 0.12103     0.10635     0.66387E-01 0.40896E-01 0.30058E-01 0.20549E-01 0.13253E-01 0.96314E-02