 vasp.5.3.2 13Sep12 (build Mar 19 2013 12:21:59) complex                        
  
 executed on             LinuxIFC date 2013.05.09  17:53:10
 running on    8 total cores
 distrk:  each k-point on    8 cores,    1 groups
 distr:  one band on NCORES_PER_BAND=   4 cores,    2 groups


--------------------------------------------------------------------------------------------------------


 INCAR:
 POTCAR:  PAW_PBE Cr 06Sep2000                    
 POTCAR:  PAW_PBE In_d 06Sep2000                  
 POTCAR:  PAW_PBE O 08Apr2002                     
 POTCAR:  PAW_PBE Cr 06Sep2000                    
   VRHFIN =Cr : d5 s1                                                           
   LEXCH  = PE                                                                  
   EATOM  =   276.9744 eV,   20.3570 Ry                                         
                                                                                
   TITEL  = PAW_PBE Cr 06Sep2000                                                
   LULTRA =        F    use ultrasoft PP ?                                      
   IUNSCR =        1    unscreen: 0-lin 1-nonlin 2-no                           
   RPACOR =    2.080    partial core radius                                     
   POMASS =   51.996; ZVAL   =    6.000    mass and valenz                      
   RCORE  =    2.500    outmost cutoff radius                                   
   RWIGS  =    2.500; RWIGS  =    1.323    wigner-seitz radius (au A)           
   ENMAX  =  227.082; ENMIN  =  170.311 eV                                      
   RCLOC  =    1.721    cutoff for local pot                                    
   LCOR   =        T    correct aug charges                                     
   LPAW   =        T    paw PP                                                  
   EAUG   =  402.108                                                            
   DEXC   =    -.035                                                            
   RMAX   =    3.060    core radius for proj-oper                               
   RAUG   =    1.300    factor for augmentation sphere                          
   RDEP   =    2.609    radius for radial grids                                 
   QCUT   =   -4.085; QGAM   =    8.171    optimization parameters              
                                                                                
   Description                                                                  
     l     E      TYP  RCUT    TYP  RCUT                                        
     2   .000     23  2.500                                                     
     2   .000     23  2.500                                                     
     0   .000     23  2.500                                                     
     0   .000     23  2.500                                                     
     1  -.400     23  2.500                                                     
     1  2.000     23  2.500                                                     
     3   .000      7   .000                                                     
  local pseudopotential read in
  partial core-charges read in
  atomic valenz-charges read in
  non local Contribution for L=           2  read in
    real space projection operators read in
  non local Contribution for L=           2  read in
    real space projection operators read in
  non local Contribution for L=           0  read in
    real space projection operators read in
  non local Contribution for L=           0  read in
    real space projection operators read in
  non local Contribution for L=           1  read in
    real space projection operators read in
  non local Contribution for L=           1  read in
    real space projection operators read in
    PAW grid and wavefunctions read in
 
   number of l-projection  operators is LMAX  =           6
   number of lm-projection operators is LMMAX =          18
 
 POTCAR:  PAW_PBE In_d 06Sep2000                  
   VRHFIN =In: s2p1                                                             
   LEXCH  = PE                                                                  
   EATOM  =  1576.8738 eV,  115.8970 Ry                                         
                                                                                
   TITEL  = PAW_PBE In_d 06Sep2000                                              
   LULTRA =        F    use ultrasoft PP ?                                      
   IUNSCR =        1    unscreen: 0-lin 1-nonlin 2-no                           
   RPACOR =    2.200    partial core radius                                     
   POMASS =  114.820; ZVAL   =   13.000    mass and valenz                      
   RCORE  =    2.500    outmost cutoff radius                                   
   RWIGS  =    3.170; RWIGS  =    1.677    wigner-seitz radius (au A)           
   ENMAX  =  239.218; ENMIN  =  179.413 eV                                      
   ICORE  =        3    local potential                                         
   LCOR   =        T    correct aug charges                                     
   LPAW   =        T    paw PP                                                  
   EAUG   =  449.704                                                            
   DEXC   =    -.003                                                            
   RMAX   =    2.981    core radius for proj-oper                               
   RAUG   =    1.300    factor for augmentation sphere                          
   RDEP   =    2.630    radius for radial grids                                 
   QCUT   =   -4.193; QGAM   =    8.386    optimization parameters              
                                                                                
   Description                                                                  
     l     E      TYP  RCUT    TYP  RCUT                                        
     2   .000     23  2.500                                                     
     2  -.100     23  2.500                                                     
     0   .000     23  2.500                                                     
     0   .000     23  2.500                                                     
     1   .000     23  2.500                                                     
     1   .000     23  2.500                                                     
     3  -.100      7  2.500                                                     
  local pseudopotential read in
  partial core-charges read in
  atomic valenz-charges read in
  non local Contribution for L=           2  read in
    real space projection operators read in
  non local Contribution for L=           2  read in
    real space projection operators read in
  non local Contribution for L=           0  read in
    real space projection operators read in
  non local Contribution for L=           0  read in
    real space projection operators read in
  non local Contribution for L=           1  read in
    real space projection operators read in
  non local Contribution for L=           1  read in
    real space projection operators read in
    PAW grid and wavefunctions read in
 
   number of l-projection  operators is LMAX  =           6
   number of lm-projection operators is LMMAX =          18
 
 POTCAR:  PAW_PBE O 08Apr2002                     
   VRHFIN =O: s2p4                                                              
   LEXCH  = PE                                                                  
   EATOM  =   432.3788 eV,   31.7789 Ry                                         
                                                                                
   TITEL  = PAW_PBE O 08Apr2002                                                 
   LULTRA =        F    use ultrasoft PP ?                                      
   IUNSCR =        0    unscreen: 0-lin 1-nonlin 2-no                           
   RPACOR =     .000    partial core radius                                     
   POMASS =   16.000; ZVAL   =    6.000    mass and valenz                      
   RCORE  =    1.520    outmost cutoff radius                                   
   RWIGS  =    1.550; RWIGS  =     .820    wigner-seitz radius (au A)           
   ENMAX  =  400.000; ENMIN  =  300.000 eV                                      
   ICORE  =        2    local potential                                         
   LCOR   =        T    correct aug charges                                     
   LPAW   =        T    paw PP                                                  
   EAUG   =  605.392                                                            
   DEXC   =     .000                                                            
   RMAX   =    2.264    core radius for proj-oper                               
   RAUG   =    1.300    factor for augmentation sphere                          
   RDEP   =    1.550    radius for radial grids                                 
   QCUT   =   -5.520; QGAM   =   11.041    optimization parameters              
                                                                                
   Description                                                                  
     l     E      TYP  RCUT    TYP  RCUT                                        
     0   .000     23  1.200                                                     
     0  -.700     23  1.200                                                     
     1   .000     23  1.520                                                     
     1   .600     23  1.520                                                     
     2   .000      7  1.500                                                     
  local pseudopotential read in
  atomic valenz-charges read in
  non local Contribution for L=           0  read in
    real space projection operators read in
  non local Contribution for L=           0  read in
    real space projection operators read in
  non local Contribution for L=           1  read in
    real space projection operators read in
  non local Contribution for L=           1  read in
    real space projection operators read in
    PAW grid and wavefunctions read in
 
   number of l-projection  operators is LMAX  =           4
   number of lm-projection operators is LMMAX =           8
 
PAW_PBE Cr 06Sep2000                    :
 energy of atom  1       EATOM= -276.9744
 kinetic energy error for atom=    0.0010 (will be added to EATOM!!)
PAW_PBE In_d 06Sep2000                  :
 energy of atom  2       EATOM=-1576.8738
 kinetic energy error for atom=    0.0029 (will be added to EATOM!!)
PAW_PBE O 08Apr2002                     :
 energy of atom  3       EATOM= -432.3788
 kinetic energy error for atom=    0.0208 (will be added to EATOM!!)
 
 
 POSCAR: Cr O In                                 
  positions in direct lattice
  No initial velocities read in
 exchange correlation table for  LEXCH =        8
   RHO(1)=    0.500       N(1)  =     2000
   RHO(2)=  100.500       N(2)  =     4000
 


--------------------------------------------------------------------------------------------------------


 ion  position               nearest neighbor table
   1  1.000  1.000  0.500-  11 1.95   5 1.95   9 1.98  10 1.98   8 1.98   7 1.98   4 3.17   4 3.17

   2  0.631  0.369  0.737-  11 1.68   6 1.68   8 1.77   9 1.77   4 3.35   4 3.42   4 3.42
   3  0.369  0.631  0.263-   5 1.68  12 1.68   7 1.77  10 1.77   4 3.35   4 3.42   4 3.42
   4  0.000  0.000  0.000-  12 2.15   6 2.15  10 2.16   7 2.16   9 2.16   8 2.16   1 3.17   1 3.17
                             2 3.35   3 3.35   2 3.42   3 3.42   2 3.42   3 3.42
   5  0.249  0.751  0.484-   3 1.68   1 1.95
   6  0.726  0.274  0.973-   2 1.68   4 2.15
   7  0.230  0.244  0.268-   3 1.77   1 1.98   4 2.16
   8  0.244  0.230  0.732-   2 1.77   1 1.98   4 2.16
   9  0.770  0.756  0.732-   2 1.77   1 1.98   4 2.16
  10  0.756  0.770  0.268-   3 1.77   1 1.98   4 2.16
  11  0.751  0.249  0.516-   2 1.68   1 1.95
  12  0.274  0.726  0.027-   3 1.68   4 2.15
 
  LATTYP: Found a base centered monoclinic cell.
 ALAT       =     7.8298757680
 B/A-ratio  =     0.7164759910
 C/A-ratio  =     2.1487557672
 COS(beta)  =    -0.7529104601
  
  Lattice vectors:
  
 A1 = (  -3.9148540000,  -2.8049590000,  -0.0256280000)
 A2 = (  -3.9148540000,   2.8049590000,  -0.0256280000)
 A3 = (  15.6242640000,   0.0000000000,  -6.2406620000)


Analysis of symmetry for initial positions (statically):
=====================================================================
 Subroutine PRICEL returns:
 Original cell was already a primitive cell.
 

 Routine SETGRP: Setting up the symmetry group for a 
 base centered monoclinic supercell.


 Subroutine GETGRP returns: Found  3 space group operations
 (whereof  3 operations were pure point group operations)
 out of a pool of  4 trial point group operations.


The static configuration has the point symmetry C_3 .


Analysis of symmetry for dynamics (positions and initial velocities):
=====================================================================
 Subroutine PRICEL returns:
 Original cell was already a primitive cell.
 

 Routine SETGRP: Setting up the symmetry group for a 
 base centered monoclinic supercell.


 Subroutine GETGRP returns: Found  3 space group operations
 (whereof  3 operations were pure point group operations)
 out of a pool of  4 trial point group operations.


The dynamic configuration has the point symmetry C_3 .


Analysis of magnetic symmetry:
=====================================================================

 Subroutine MAGSYM returns: Found  3 space group operations
 (whereof  3 operations were pure point group operations)
 out of a pool of  3 trial space group operations
 (whereof  3 operations were pure point group operations)
 and found also     1 'primitive' translations


The magnetic configuration has the point symmetry C_3 .
 
 
 KPOINTS: KPOINTS                                 

Automatic generation of k-mesh.
Space group operators:
 irot       det(A)        alpha          n_x          n_y          n_z        tau_x        tau_y        tau_z
    1     1.000000     0.000000     1.000000     0.000000     0.000000     0.000000     0.000000     0.000000
    2     1.000000   180.000000     0.000000     1.000000     0.000000     0.000000     0.000000     0.000000
    3    -1.000000   180.000000     0.000000     1.000000     0.000000     0.000000     0.000000     0.000000
 
 Subroutine IBZKPT returns following result:
 ===========================================
 
 Found    196 irreducible k-points:
 
 Following reciprocal coordinates:
            Coordinates               Weight
  0.000000  0.000000  0.000000      1.000000
  0.100000  0.000000  0.000000      4.000000
  0.200000  0.000000  0.000000      4.000000
  0.300000  0.000000  0.000000      4.000000
  0.400000  0.000000  0.000000      4.000000
  0.500000  0.000000  0.000000      2.000000
  0.100000  0.100000  0.000000      2.000000
  0.200000  0.100000  0.000000      4.000000
  0.300000  0.100000  0.000000      4.000000
  0.400000  0.100000  0.000000      4.000000
  0.500000  0.100000  0.000000      4.000000
 -0.400000  0.100000  0.000000      4.000000
 -0.300000  0.100000  0.000000      4.000000
 -0.200000  0.100000  0.000000      4.000000
 -0.100000  0.100000  0.000000      2.000000
  0.200000  0.200000  0.000000      2.000000
  0.300000  0.200000  0.000000      4.000000
  0.400000  0.200000  0.000000      4.000000
  0.500000  0.200000  0.000000      4.000000
 -0.400000  0.200000  0.000000      4.000000
 -0.300000  0.200000  0.000000      4.000000
 -0.200000  0.200000  0.000000      2.000000
  0.300000  0.300000  0.000000      2.000000
  0.400000  0.300000  0.000000      4.000000
  0.500000  0.300000  0.000000      4.000000
 -0.400000  0.300000  0.000000      4.000000
 -0.300000  0.300000  0.000000      2.000000
  0.400000  0.400000  0.000000      2.000000
  0.500000  0.400000  0.000000      4.000000
 -0.400000  0.400000  0.000000      2.000000
  0.500000  0.500000  0.000000      1.000000
  0.000000  0.000000  0.142857      2.000000
  0.100000  0.000000  0.142857      4.000000
  0.200000  0.000000  0.142857      4.000000
  0.300000  0.000000  0.142857      4.000000
  0.400000  0.000000  0.142857      4.000000
  0.500000  0.000000  0.142857      4.000000
 -0.400000  0.000000  0.142857      4.000000
 -0.300000  0.000000  0.142857      4.000000
 -0.200000  0.000000  0.142857      4.000000
 -0.100000  0.000000  0.142857      4.000000
  0.100000  0.100000  0.142857      4.000000
  0.200000  0.100000  0.142857      4.000000
  0.300000  0.100000  0.142857      4.000000
  0.400000  0.100000  0.142857      4.000000
  0.500000  0.100000  0.142857      4.000000
 -0.400000  0.100000  0.142857      4.000000
 -0.300000  0.100000  0.142857      4.000000
 -0.200000  0.100000  0.142857      4.000000
 -0.100000  0.100000  0.142857      2.000000
  0.100000  0.200000  0.142857      4.000000
  0.200000  0.200000  0.142857      4.000000
  0.300000  0.200000  0.142857      4.000000
  0.400000  0.200000  0.142857      4.000000
  0.500000  0.200000  0.142857      4.000000
 -0.400000  0.200000  0.142857      4.000000
 -0.300000  0.200000  0.142857      4.000000
 -0.200000  0.200000  0.142857      2.000000
  0.100000  0.300000  0.142857      4.000000
  0.200000  0.300000  0.142857      4.000000
  0.300000  0.300000  0.142857      4.000000
  0.400000  0.300000  0.142857      4.000000
  0.500000  0.300000  0.142857      4.000000
 -0.400000  0.300000  0.142857      4.000000
 -0.300000  0.300000  0.142857      2.000000
  0.100000  0.400000  0.142857      4.000000
  0.200000  0.400000  0.142857      4.000000
  0.300000  0.400000  0.142857      4.000000
  0.400000  0.400000  0.142857      4.000000
  0.500000  0.400000  0.142857      4.000000
 -0.400000  0.400000  0.142857      2.000000
  0.100000  0.500000  0.142857      4.000000
  0.200000  0.500000  0.142857      4.000000
  0.300000  0.500000  0.142857      4.000000
  0.400000  0.500000  0.142857      4.000000
  0.500000  0.500000  0.142857      2.000000
  0.100000 -0.400000  0.142857      4.000000
  0.200000 -0.400000  0.142857      4.000000
  0.300000 -0.400000  0.142857      4.000000
  0.400000 -0.400000  0.142857      2.000000
  0.100000 -0.300000  0.142857      4.000000
  0.200000 -0.300000  0.142857      4.000000
  0.300000 -0.300000  0.142857      2.000000
  0.100000 -0.200000  0.142857      4.000000
  0.200000 -0.200000  0.142857      2.000000
  0.100000 -0.100000  0.142857      2.000000
  0.000000  0.000000  0.285714      2.000000
  0.100000  0.000000  0.285714      4.000000
  0.200000  0.000000  0.285714      4.000000
  0.300000  0.000000  0.285714      4.000000
  0.400000  0.000000  0.285714      4.000000
  0.500000  0.000000  0.285714      4.000000
 -0.400000  0.000000  0.285714      4.000000
 -0.300000  0.000000  0.285714      4.000000
 -0.200000  0.000000  0.285714      4.000000
 -0.100000  0.000000  0.285714      4.000000
  0.100000  0.100000  0.285714      4.000000
  0.200000  0.100000  0.285714      4.000000
  0.300000  0.100000  0.285714      4.000000
  0.400000  0.100000  0.285714      4.000000
  0.500000  0.100000  0.285714      4.000000
 -0.400000  0.100000  0.285714      4.000000
 -0.300000  0.100000  0.285714      4.000000
 -0.200000  0.100000  0.285714      4.000000
 -0.100000  0.100000  0.285714      2.000000
  0.100000  0.200000  0.285714      4.000000
  0.200000  0.200000  0.285714      4.000000
  0.300000  0.200000  0.285714      4.000000
  0.400000  0.200000  0.285714      4.000000
  0.500000  0.200000  0.285714      4.000000
 -0.400000  0.200000  0.285714      4.000000
 -0.300000  0.200000  0.285714      4.000000
 -0.200000  0.200000  0.285714      2.000000
  0.100000  0.300000  0.285714      4.000000
  0.200000  0.300000  0.285714      4.000000
  0.300000  0.300000  0.285714      4.000000
  0.400000  0.300000  0.285714      4.000000
  0.500000  0.300000  0.285714      4.000000
 -0.400000  0.300000  0.285714      4.000000
 -0.300000  0.300000  0.285714      2.000000
  0.100000  0.400000  0.285714      4.000000
  0.200000  0.400000  0.285714      4.000000
  0.300000  0.400000  0.285714      4.000000
  0.400000  0.400000  0.285714      4.000000
  0.500000  0.400000  0.285714      4.000000
 -0.400000  0.400000  0.285714      2.000000
  0.100000  0.500000  0.285714      4.000000
  0.200000  0.500000  0.285714      4.000000
  0.300000  0.500000  0.285714      4.000000
  0.400000  0.500000  0.285714      4.000000
  0.500000  0.500000  0.285714      2.000000
  0.100000 -0.400000  0.285714      4.000000
  0.200000 -0.400000  0.285714      4.000000
  0.300000 -0.400000  0.285714      4.000000
  0.400000 -0.400000  0.285714      2.000000
  0.100000 -0.300000  0.285714      4.000000
  0.200000 -0.300000  0.285714      4.000000
  0.300000 -0.300000  0.285714      2.000000
  0.100000 -0.200000  0.285714      4.000000
  0.200000 -0.200000  0.285714      2.000000
  0.100000 -0.100000  0.285714      2.000000
  0.000000  0.000000  0.428571      2.000000
  0.100000  0.000000  0.428571      4.000000
  0.200000  0.000000  0.428571      4.000000
  0.300000  0.000000  0.428571      4.000000
  0.400000  0.000000  0.428571      4.000000
  0.500000  0.000000  0.428571      4.000000
 -0.400000  0.000000  0.428571      4.000000
 -0.300000  0.000000  0.428571      4.000000
 -0.200000  0.000000  0.428571      4.000000
 -0.100000  0.000000  0.428571      4.000000
  0.100000  0.100000  0.428571      4.000000
  0.200000  0.100000  0.428571      4.000000
  0.300000  0.100000  0.428571      4.000000
  0.400000  0.100000  0.428571      4.000000
  0.500000  0.100000  0.428571      4.000000
 -0.400000  0.100000  0.428571      4.000000
 -0.300000  0.100000  0.428571      4.000000
 -0.200000  0.100000  0.428571      4.000000
 -0.100000  0.100000  0.428571      2.000000
  0.100000  0.200000  0.428571      4.000000
  0.200000  0.200000  0.428571      4.000000
  0.300000  0.200000  0.428571      4.000000
  0.400000  0.200000  0.428571      4.000000
  0.500000  0.200000  0.428571      4.000000
 -0.400000  0.200000  0.428571      4.000000
 -0.300000  0.200000  0.428571      4.000000
 -0.200000  0.200000  0.428571      2.000000
  0.100000  0.300000  0.428571      4.000000
  0.200000  0.300000  0.428571      4.000000
  0.300000  0.300000  0.428571      4.000000
  0.400000  0.300000  0.428571      4.000000
  0.500000  0.300000  0.428571      4.000000
 -0.400000  0.300000  0.428571      4.000000
 -0.300000  0.300000  0.428571      2.000000
  0.100000  0.400000  0.428571      4.000000
  0.200000  0.400000  0.428571      4.000000
  0.300000  0.400000  0.428571      4.000000
  0.400000  0.400000  0.428571      4.000000
  0.500000  0.400000  0.428571      4.000000
 -0.400000  0.400000  0.428571      2.000000
  0.100000  0.500000  0.428571      4.000000
  0.200000  0.500000  0.428571      4.000000
  0.300000  0.500000  0.428571      4.000000
  0.400000  0.500000  0.428571      4.000000
  0.500000  0.500000  0.428571      2.000000
  0.100000 -0.400000  0.428571      4.000000
  0.200000 -0.400000  0.428571      4.000000
  0.300000 -0.400000  0.428571      4.000000
  0.400000 -0.400000  0.428571      2.000000
  0.100000 -0.300000  0.428571      4.000000
  0.200000 -0.300000  0.428571      4.000000
  0.300000 -0.300000  0.428571      2.000000
  0.100000 -0.200000  0.428571      4.000000
  0.200000 -0.200000  0.428571      2.000000
  0.100000 -0.100000  0.428571      2.000000
 
 Following cartesian coordinates:
            Coordinates               Weight
  0.000000  0.000000  0.000000      1.000000
  0.012772  0.017826 -0.000071      4.000000
  0.025545  0.035651 -0.000142      4.000000
  0.038317  0.053477 -0.000212      4.000000
  0.051089  0.071302 -0.000283      4.000000
  0.063862  0.089128 -0.000354      2.000000
  0.000000  0.035651  0.000000      2.000000
  0.012772  0.053477 -0.000071      4.000000
  0.025545  0.071302 -0.000142      4.000000
  0.038317  0.089128 -0.000212      4.000000
  0.051089  0.106953 -0.000283      4.000000
 -0.063862 -0.053477  0.000354      4.000000
 -0.051089 -0.035651  0.000283      4.000000
 -0.038317 -0.017826  0.000212      4.000000
 -0.025545  0.000000  0.000142      2.000000
  0.000000  0.071302  0.000000      2.000000
  0.012772  0.089128 -0.000071      4.000000
  0.025545  0.106953 -0.000142      4.000000
  0.038317  0.124779 -0.000212      4.000000
 -0.076634 -0.035651  0.000425      4.000000
 -0.063862 -0.017826  0.000354      4.000000
 -0.051089  0.000000  0.000283      2.000000
  0.000000  0.106953  0.000000      2.000000
  0.012772  0.124779 -0.000071      4.000000
  0.025545  0.142605 -0.000142      4.000000
 -0.089406 -0.017826  0.000495      4.000000
 -0.076634  0.000000  0.000425      2.000000
  0.000000  0.142605  0.000000      2.000000
  0.012772  0.160430 -0.000071      4.000000
 -0.102179  0.000000  0.000566      2.000000
  0.000000  0.178256  0.000000      1.000000
 -0.000147  0.000000  0.022522      2.000000
  0.012625  0.017826  0.022451      4.000000
  0.025397  0.035651  0.022381      4.000000
  0.038170  0.053477  0.022310      4.000000
  0.050942  0.071302  0.022239      4.000000
  0.063714  0.089128  0.022168      4.000000
 -0.051237 -0.071302  0.022805      4.000000
 -0.038464 -0.053477  0.022735      4.000000
 -0.025692 -0.035651  0.022664      4.000000
 -0.012920 -0.017826  0.022593      4.000000
 -0.000147  0.035651  0.022522      4.000000
  0.012625  0.053477  0.022451      4.000000
  0.025397  0.071302  0.022381      4.000000
  0.038170  0.089128  0.022310      4.000000
  0.050942  0.106953  0.022239      4.000000
 -0.064009 -0.053477  0.022876      4.000000
 -0.051237 -0.035651  0.022805      4.000000
 -0.038464 -0.017826  0.022735      4.000000
 -0.025692  0.000000  0.022664      2.000000
 -0.012920  0.053477  0.022593      4.000000
 -0.000147  0.071302  0.022522      4.000000
  0.012625  0.089128  0.022451      4.000000
  0.025397  0.106953  0.022381      4.000000
  0.038170  0.124779  0.022310      4.000000
 -0.076781 -0.035651  0.022947      4.000000
 -0.064009 -0.017826  0.022876      4.000000
 -0.051237  0.000000  0.022805      2.000000
 -0.025692  0.071302  0.022664      4.000000
 -0.012920  0.089128  0.022593      4.000000
 -0.000147  0.106953  0.022522      4.000000
  0.012625  0.124779  0.022451      4.000000
  0.025397  0.142605  0.022381      4.000000
 -0.089554 -0.017826  0.023018      4.000000
 -0.076781  0.000000  0.022947      2.000000
 -0.038464  0.089128  0.022735      4.000000
 -0.025692  0.106953  0.022664      4.000000
 -0.012920  0.124779  0.022593      4.000000
 -0.000147  0.142605  0.022522      4.000000
  0.012625  0.160430  0.022451      4.000000
 -0.102326  0.000000  0.023088      2.000000
 -0.051237  0.106953  0.022805      4.000000
 -0.038464  0.124779  0.022735      4.000000
 -0.025692  0.142605  0.022664      4.000000
 -0.012920  0.160430  0.022593      4.000000
 -0.000147  0.178256  0.022522      2.000000
  0.063714 -0.053477  0.022168      4.000000
  0.076487 -0.035651  0.022098      4.000000
  0.089259 -0.017826  0.022027      4.000000
  0.102031  0.000000  0.021956      2.000000
  0.050942 -0.035651  0.022239      4.000000
  0.063714 -0.017826  0.022168      4.000000
  0.076487  0.000000  0.022098      2.000000
  0.038170 -0.017826  0.022310      4.000000
  0.050942  0.000000  0.022239      2.000000
  0.025397  0.000000  0.022381      2.000000
 -0.000295  0.000000  0.045044      2.000000
  0.012477  0.017826  0.044974      4.000000
  0.025250  0.035651  0.044903      4.000000
  0.038022  0.053477  0.044832      4.000000
  0.050794  0.071302  0.044761      4.000000
  0.063567  0.089128  0.044691      4.000000
 -0.051384 -0.071302  0.045328      4.000000
 -0.038612 -0.053477  0.045257      4.000000
 -0.025840 -0.035651  0.045186      4.000000
 -0.013067 -0.017826  0.045115      4.000000
 -0.000295  0.035651  0.045044      4.000000
  0.012477  0.053477  0.044974      4.000000
  0.025250  0.071302  0.044903      4.000000
  0.038022  0.089128  0.044832      4.000000
  0.050794  0.106953  0.044761      4.000000
 -0.064157 -0.053477  0.045398      4.000000
 -0.051384 -0.035651  0.045328      4.000000
 -0.038612 -0.017826  0.045257      4.000000
 -0.025840  0.000000  0.045186      2.000000
 -0.013067  0.053477  0.045115      4.000000
 -0.000295  0.071302  0.045044      4.000000
  0.012477  0.089128  0.044974      4.000000
  0.025250  0.106953  0.044903      4.000000
  0.038022  0.124779  0.044832      4.000000
 -0.076929 -0.035651  0.045469      4.000000
 -0.064157 -0.017826  0.045398      4.000000
 -0.051384  0.000000  0.045328      2.000000
 -0.025840  0.071302  0.045186      4.000000
 -0.013067  0.089128  0.045115      4.000000
 -0.000295  0.106953  0.045044      4.000000
  0.012477  0.124779  0.044974      4.000000
  0.025250  0.142605  0.044903      4.000000
 -0.089701 -0.017826  0.045540      4.000000
 -0.076929  0.000000  0.045469      2.000000
 -0.038612  0.089128  0.045257      4.000000
 -0.025840  0.106953  0.045186      4.000000
 -0.013067  0.124779  0.045115      4.000000
 -0.000295  0.142605  0.045044      4.000000
  0.012477  0.160430  0.044974      4.000000
 -0.102474  0.000000  0.045611      2.000000
 -0.051384  0.106953  0.045328      4.000000
 -0.038612  0.124779  0.045257      4.000000
 -0.025840  0.142605  0.045186      4.000000
 -0.013067  0.160430  0.045115      4.000000
 -0.000295  0.178256  0.045044      2.000000
  0.063567 -0.053477  0.044691      4.000000
  0.076339 -0.035651  0.044620      4.000000
  0.089111 -0.017826  0.044549      4.000000
  0.101884  0.000000  0.044478      2.000000
  0.050794 -0.035651  0.044761      4.000000
  0.063567 -0.017826  0.044691      4.000000
  0.076339  0.000000  0.044620      2.000000
  0.038022 -0.017826  0.044832      4.000000
  0.050794  0.000000  0.044761      2.000000
  0.025250  0.000000  0.044903      2.000000
 -0.000442  0.000000  0.067567      2.000000
  0.012330  0.017826  0.067496      4.000000
  0.025102  0.035651  0.067425      4.000000
  0.037875  0.053477  0.067354      4.000000
  0.050647  0.071302  0.067284      4.000000
  0.063419  0.089128  0.067213      4.000000
 -0.051532 -0.071302  0.067850      4.000000
 -0.038759 -0.053477  0.067779      4.000000
 -0.025987 -0.035651  0.067708      4.000000
 -0.013215 -0.017826  0.067637      4.000000
 -0.000442  0.035651  0.067567      4.000000
  0.012330  0.053477  0.067496      4.000000
  0.025102  0.071302  0.067425      4.000000
  0.037875  0.089128  0.067354      4.000000
  0.050647  0.106953  0.067284      4.000000
 -0.064304 -0.053477  0.067921      4.000000
 -0.051532 -0.035651  0.067850      4.000000
 -0.038759 -0.017826  0.067779      4.000000
 -0.025987  0.000000  0.067708      2.000000
 -0.013215  0.053477  0.067637      4.000000
 -0.000442  0.071302  0.067567      4.000000
  0.012330  0.089128  0.067496      4.000000
  0.025102  0.106953  0.067425      4.000000
  0.037875  0.124779  0.067354      4.000000
 -0.077076 -0.035651  0.067991      4.000000
 -0.064304 -0.017826  0.067921      4.000000
 -0.051532  0.000000  0.067850      2.000000
 -0.025987  0.071302  0.067708      4.000000
 -0.013215  0.089128  0.067637      4.000000
 -0.000442  0.106953  0.067567      4.000000
  0.012330  0.124779  0.067496      4.000000
  0.025102  0.142605  0.067425      4.000000
 -0.089849 -0.017826  0.068062      4.000000
 -0.077076  0.000000  0.067991      2.000000
 -0.038759  0.089128  0.067779      4.000000
 -0.025987  0.106953  0.067708      4.000000
 -0.013215  0.124779  0.067637      4.000000
 -0.000442  0.142605  0.067567      4.000000
  0.012330  0.160430  0.067496      4.000000
 -0.102621  0.000000  0.068133      2.000000
 -0.051532  0.106953  0.067850      4.000000
 -0.038759  0.124779  0.067779      4.000000
 -0.025987  0.142605  0.067708      4.000000
 -0.013215  0.160430  0.067637      4.000000
 -0.000442  0.178256  0.067567      2.000000
  0.063419 -0.053477  0.067213      4.000000
  0.076192 -0.035651  0.067142      4.000000
  0.088964 -0.017826  0.067071      4.000000
  0.101736  0.000000  0.067000      2.000000
  0.050647 -0.035651  0.067284      4.000000
  0.063419 -0.017826  0.067213      4.000000
  0.076192  0.000000  0.067142      2.000000
  0.037875 -0.017826  0.067354      4.000000
  0.050647  0.000000  0.067284      2.000000
  0.025102  0.000000  0.067425      2.000000
 
 TETIRR: Found   1055 inequivalent tetrahedra from     4200


--------------------------------------------------------------------------------------------------------




 Dimension of arrays:
   k-points           NKPTS =    196   k-points in BZ     NKDIM =    196   number of bands    NBANDS=     56
   number of dos      NEDOS =    301   number of ions     NIONS =     12
   non local maximal  LDIM  =      6   non local SUM 2l+1 LMDIM =     18
   total plane-waves  NPLWV =  28224
   max r-space proj   IRMAX =      1   max aug-charges    IRDMAX=   3866
   dimension x,y,z NGX =    28 NGY =   28 NGZ =   36
   dimension x,y,z NGXF=    40 NGYF=   40 NGZF=   50
   support grid    NGXF=    40 NGYF=   40 NGZF=   50
   ions per type =               3   1   8
 NGX,Y,Z   is equivalent  to a cutoff of   9.67,  9.67,  9.43 a.u.
 NGXF,Y,Z  is equivalent  to a cutoff of  13.81, 13.81, 13.10 a.u.


 I would recommend the setting:
   dimension x,y,z NGX =    27 NGY =   27 NGZ =   35
 SYSTEM =  unknown system                          
 POSCAR =  Cr O In                                 

 Startparameter for this run:
   NWRITE =      2    write-flag & timer
   PREC   = med       normal or accurate (medium, high low for compatibility)
   ISTART =      0    job   : 0-new  1-cont  2-samecut
   ICHARG =      1    charge: 1-file 2-atom 10-const
   ISPIN  =      2    spin polarized calculation?
   LNONCOLLINEAR =      F non collinear calculations
   LSORBIT =      F    spin-orbit coupling
   INIWAV =      1    electr: 0-lowe 1-rand  2-diag
   LASPH  =      F    aspherical Exc in radial PAW
   METAGGA=      F    non-selfconsistent MetaGGA calc.

 Electronic Relaxation 1
   ENCUT  =  520.0 eV  38.22 Ry    6.18 a.u.   8.95  8.95 11.79*2*pi/ulx,y,z
   ENINI  =  520.0     initial cutoff
   ENAUG  =  605.4 eV  augmentation charge cutoff
   NELM   =     60;   NELMIN=  2; NELMDL=  0     # of ELM steps 
   EDIFF  = 0.1E-03   stopping-criterion for ELM
   LREAL  =      F    real-space projection
   NLSPLINE    = F    spline interpolate recip. space projectors
   LCOMPAT=      F    compatible to vasp.4.4
   GGA_COMPAT  = T    GGA compatible to vasp.4.4-vasp.4.6
   LMAXPAW     = -100 max onsite density
   LMAXMIX     =    2 max onsite mixed and CHGCAR
   VOSKOWN=      0    Vosko Wilk Nusair interpolation
   ROPT   =    0.00000   0.00000   0.00000
 Ionic relaxation
   EDIFFG = 0.1E-02   stopping-criterion for IOM
   NSW    =      0    number of steps for IOM
   NBLOCK =      1;   KBLOCK =      1    inner block; outer block 
   IBRION =     -1    ionic relax: 0-MD 1-quasi-New 2-CG
   NFREE  =      0    steps in history (QN), initial steepest desc. (CG)
   ISIF   =      2    stress and relaxation
   IWAVPR =     10    prediction:  0-non 1-charg 2-wave 3-comb
   ISYM   =      1    0-nonsym 1-usesym 2-fastsym
   LCORR  =      T    Harris-Foulkes like correction to forces

   POTIM  = 0.5000    time-step for ionic-motion
   TEIN   =    0.0    initial temperature
   TEBEG  =    0.0;   TEEND  =   0.0 temperature during run
   SMASS  =  -3.00    Nose mass-parameter (am)
   estimated Nose-frequenzy (Omega)   =  0.10E-29 period in steps =****** mass=  -0.530E-27a.u.
   SCALEE = 1.0000    scale energy and forces
   NPACO  =    256;   APACO  = 16.0  distance and # of slots for P.C.
   PSTRESS=    0.0 pullay stress

  Mass of Ions in am
   POMASS =  52.00114.82 16.00
  Ionic Valenz
   ZVAL   =   6.00 13.00  6.00
  Atomic Wigner-Seitz radii
   RWIGS  =  -1.00 -1.00 -1.00
  virtual crystal weights 
   VCA    =   1.00  1.00  1.00
   NELECT =      79.0000    total number of electrons
   NUPDOWN=      -1.0000    fix difference up-down

 DOS related values:
   EMIN   =  10.00;   EMAX   =-10.00  energy-range for DOS
   EFERMI =   0.00
   ISMEAR =    -5;   SIGMA  =   0.20  broadening in eV -4-tet -1-fermi 0-gaus

 Electronic relaxation 2 (details)
   IALGO  =     68    algorithm
   LDIAG  =      T    sub-space diagonalisation (order eigenvalues)
   LSUBROT=      T    optimize rotation matrix (better conditioning)
   TURBO    =      0    0=normal 1=particle mesh
   IRESTART =      0    0=no restart 2=restart with 2 vectors
   NREBOOT  =      0    no. of reboots
   NMIN     =      0    reboot dimension
   EREF     =   0.00    reference energy to select bands
   IMIX   =      4    mixing-type and parameters
     AMIX     =   0.40;   BMIX     =  1.00
     AMIX_MAG =   1.60;   BMIX_MAG =  1.00
     AMIN     =   0.10
     WC   =   100.;   INIMIX=   1;  MIXPRE=   1;  MAXMIX= -45

 Intra band minimization:
   WEIMIN = 0.0000     energy-eigenvalue tresh-hold
   EBREAK =  0.45E-06  absolut break condition
   DEPER  =   0.30     relativ break condition  

   TIME   =   0.40     timestep for ELM

  volume/ion in A,a.u.               =      11.61        78.34
  Fermi-wavevector in a.u.,A,eV,Ry     =   1.355074  2.560718 24.983350  1.836224
  Thomas-Fermi vector in A             =   2.482192
 
 Write flags
   LWAVE  =      F    write WAVECAR
   LCHARG =      T    write CHGCAR
   LVTOT  =      F    write LOCPOT, total local potential
   LVHAR  =      T    write LOCPOT, Hartree potential only
   LELF   =      T    write electronic localiz. function (ELF)
   LORBIT =     11    0 simple, 1 ext, 2 COOP (PROOUT)


 Dipole corrections
   LMONO  =      F    monopole corrections only (constant potential shift)
   LDIPOL =      F    correct potential (dipole corrections)
   IDIPOL =      0    1-x, 2-y, 3-z, 4-all directions 
   EPSILON=  1.0000000 bulk dielectric constant

 LDA+U is selected, type is set to LDAUTYPE =  2
   angular momentum for each species LDAUL =     2   -1   -1
   U (eV)           for each species LDAUU =   3.5  0.0  0.0
   J (eV)           for each species LDAUJ =   0.0  0.0  0.0
 Exchange correlation treatment:
   GGA     =    --    GGA type
   LEXCH   =     8    internal setting for exchange type
   VOSKOWN=      0    Vosko Wilk Nusair interpolation
   LHFCALC =     F    Hartree Fock is set to
   LHFONE  =     F    Hartree Fock one center treatment
   AEXX    =    0.0000 exact exchange contribution

 Linear response parameters
   LEPSILON=     F    determine dielectric tensor
   LRPA    =     F    only Hartree local field effects (RPA)
   LNABLA  =     F    use nabla operator in PAW spheres
   LVEL    =     F    velocity operator in full k-point grid
   LINTERFAST=   F  fast interpolation
   KINTER  =     0    interpolate to denser k-point grid
   CSHIFT  =0.1000    complex shift for real part using Kramers Kronig
   OMEGAMAX=  -1.0    maximum frequency
   DEG_THRESHOLD= 0.2000000E-02 threshold for treating states as degnerate
   RTIME   =    0.100 relaxation time in fs

 Orbital magnetization related:
   ORBITALMAG=     F  switch on orbital magnetization
   LCHIMAG   =     F  perturbation theory with respect to B field
   DQ        =  0.001000  dq finite difference perturbation B field



--------------------------------------------------------------------------------------------------------


 Static calculation
 charge density and potential will be updated during run
 spin polarized calculation
 RMM-DIIS sequential band-by-band and
  variant of blocked Davidson during initial phase
 perform sub-space diagonalisation
    before iterative eigenvector-optimisation
 modified Broyden-mixing scheme, WC =      100.0
 initial mixing is a Kerker type mixing with AMIX =  0.4000 and BMIX =      1.0000
 Hartree-type preconditioning will be used
 using additional bands           16
 reciprocal scheme for non local part
 use partial core corrections
 calculate Harris-corrections to forces 
   (improved forces if not selfconsistent)
 use gradient corrections 
 use of overlap-Matrix (Vanderbilt PP)
 Fermi weights with tetrahedron method with Bloechl corrections


--------------------------------------------------------------------------------------------------------


  energy-cutoff  :      520.00
  volume of cell :      139.30
      direct lattice vectors                 reciprocal lattice vectors
     3.914854000  2.804959000  0.025628000     0.127723317  0.178255725 -0.000707805
    -3.914854000  2.804959000 -0.025628000    -0.127723317  0.178255725  0.000707805
     0.035152000  0.000000000  6.343174000    -0.001032068  0.000000000  0.157655502

  length of vectors
     4.816070351  4.816070351  6.343271400     0.219291701  0.219291701  0.157658880


 
 k-points in units of 2pi/SCALE and weight: KPOINTS                                 
   0.00000000  0.00000000  0.00000000       0.001
   0.01277233  0.01782557 -0.00007078       0.006
   0.02554466  0.03565114 -0.00014156       0.006
   0.03831700  0.05347672 -0.00021234       0.006
   0.05108933  0.07130229 -0.00028312       0.006
   0.06386166  0.08912786 -0.00035390       0.003
   0.00000000  0.03565114  0.00000000       0.003
   0.01277233  0.05347672 -0.00007078       0.006
   0.02554466  0.07130229 -0.00014156       0.006
   0.03831700  0.08912786 -0.00021234       0.006
   0.05108933  0.10695343 -0.00028312       0.006
  -0.06386166 -0.05347672  0.00035390       0.006
  -0.05108933 -0.03565114  0.00028312       0.006
  -0.03831700 -0.01782557  0.00021234       0.006
  -0.02554466  0.00000000  0.00014156       0.003
   0.00000000  0.07130229  0.00000000       0.003
   0.01277233  0.08912786 -0.00007078       0.006
   0.02554466  0.10695343 -0.00014156       0.006
   0.03831700  0.12477901 -0.00021234       0.006
  -0.07663399 -0.03565114  0.00042468       0.006
  -0.06386166 -0.01782557  0.00035390       0.006
  -0.05108933  0.00000000  0.00028312       0.003
   0.00000000  0.10695343  0.00000000       0.003
   0.01277233  0.12477901 -0.00007078       0.006
   0.02554466  0.14260458 -0.00014156       0.006
  -0.08940632 -0.01782557  0.00049546       0.006
  -0.07663399  0.00000000  0.00042468       0.003
   0.00000000  0.14260458  0.00000000       0.003
   0.01277233  0.16043015 -0.00007078       0.006
  -0.10217865  0.00000000  0.00056624       0.003
   0.00000000  0.17825572  0.00000000       0.001
  -0.00014744  0.00000000  0.02252221       0.003
   0.01262489  0.01782557  0.02245143       0.006
   0.02539723  0.03565114  0.02238065       0.006
   0.03816956  0.05347672  0.02230987       0.006
   0.05094189  0.07130229  0.02223909       0.006
   0.06371422  0.08912786  0.02216831       0.006
  -0.05123677 -0.07130229  0.02280534       0.006
  -0.03846443 -0.05347672  0.02273456       0.006
  -0.02569210 -0.03565114  0.02266378       0.006
  -0.01291977 -0.01782557  0.02259300       0.006
  -0.00014744  0.03565114  0.02252221       0.006
   0.01262489  0.05347672  0.02245143       0.006
   0.02539723  0.07130229  0.02238065       0.006
   0.03816956  0.08912786  0.02230987       0.006
   0.05094189  0.10695343  0.02223909       0.006
  -0.06400910 -0.05347672  0.02287612       0.006
  -0.05123677 -0.03565114  0.02280534       0.006
  -0.03846443 -0.01782557  0.02273456       0.006
  -0.02569210  0.00000000  0.02266378       0.003
  -0.01291977  0.05347672  0.02259300       0.006
  -0.00014744  0.07130229  0.02252221       0.006
   0.01262489  0.08912786  0.02245143       0.006
   0.02539723  0.10695343  0.02238065       0.006
   0.03816956  0.12477901  0.02230987       0.006
  -0.07678143 -0.03565114  0.02294690       0.006
  -0.06400910 -0.01782557  0.02287612       0.006
  -0.05123677  0.00000000  0.02280534       0.003
  -0.02569210  0.07130229  0.02266378       0.006
  -0.01291977  0.08912786  0.02259300       0.006
  -0.00014744  0.10695343  0.02252221       0.006
   0.01262489  0.12477901  0.02245143       0.006
   0.02539723  0.14260458  0.02238065       0.006
  -0.08955376 -0.01782557  0.02301768       0.006
  -0.07678143  0.00000000  0.02294690       0.003
  -0.03846443  0.08912786  0.02273456       0.006
  -0.02569210  0.10695343  0.02266378       0.006
  -0.01291977  0.12477901  0.02259300       0.006
  -0.00014744  0.14260458  0.02252221       0.006
   0.01262489  0.16043015  0.02245143       0.006
  -0.10232609  0.00000000  0.02308846       0.003
  -0.05123677  0.10695343  0.02280534       0.006
  -0.03846443  0.12477901  0.02273456       0.006
  -0.02569210  0.14260458  0.02266378       0.006
  -0.01291977  0.16043015  0.02259300       0.006
  -0.00014744  0.17825572  0.02252221       0.003
   0.06371422 -0.05347672  0.02216831       0.006
   0.07648655 -0.03565114  0.02209753       0.006
   0.08925888 -0.01782557  0.02202675       0.006
   0.10203122  0.00000000  0.02195597       0.003
   0.05094189 -0.03565114  0.02223909       0.006
   0.06371422 -0.01782557  0.02216831       0.006
   0.07648655  0.00000000  0.02209753       0.003
   0.03816956 -0.01782557  0.02230987       0.006
   0.05094189  0.00000000  0.02223909       0.003
   0.02539723  0.00000000  0.02238065       0.003
  -0.00029488  0.00000000  0.04504443       0.003
   0.01247746  0.01782557  0.04497365       0.006
   0.02524979  0.03565114  0.04490287       0.006
   0.03802212  0.05347672  0.04483209       0.006
   0.05079445  0.07130229  0.04476131       0.006
   0.06356678  0.08912786  0.04469053       0.006
  -0.05138420 -0.07130229  0.04532755       0.006
  -0.03861187 -0.05347672  0.04525677       0.006
  -0.02583954 -0.03565114  0.04518599       0.006
  -0.01306721 -0.01782557  0.04511521       0.006
  -0.00029488  0.03565114  0.04504443       0.006
   0.01247746  0.05347672  0.04497365       0.006
   0.02524979  0.07130229  0.04490287       0.006
   0.03802212  0.08912786  0.04483209       0.006
   0.05079445  0.10695343  0.04476131       0.006
  -0.06415654 -0.05347672  0.04539833       0.006
  -0.05138420 -0.03565114  0.04532755       0.006
  -0.03861187 -0.01782557  0.04525677       0.006
  -0.02583954  0.00000000  0.04518599       0.003
  -0.01306721  0.05347672  0.04511521       0.006
  -0.00029488  0.07130229  0.04504443       0.006
   0.01247746  0.08912786  0.04497365       0.006
   0.02524979  0.10695343  0.04490287       0.006
   0.03802212  0.12477901  0.04483209       0.006
  -0.07692887 -0.03565114  0.04546911       0.006
  -0.06415654 -0.01782557  0.04539833       0.006
  -0.05138420  0.00000000  0.04532755       0.003
  -0.02583954  0.07130229  0.04518599       0.006
  -0.01306721  0.08912786  0.04511521       0.006
  -0.00029488  0.10695343  0.04504443       0.006
   0.01247746  0.12477901  0.04497365       0.006
   0.02524979  0.14260458  0.04490287       0.006
  -0.08970120 -0.01782557  0.04553989       0.006
  -0.07692887  0.00000000  0.04546911       0.003
  -0.03861187  0.08912786  0.04525677       0.006
  -0.02583954  0.10695343  0.04518599       0.006
  -0.01306721  0.12477901  0.04511521       0.006
  -0.00029488  0.14260458  0.04504443       0.006
   0.01247746  0.16043015  0.04497365       0.006
  -0.10247353  0.00000000  0.04561067       0.003
  -0.05138420  0.10695343  0.04532755       0.006
  -0.03861187  0.12477901  0.04525677       0.006
  -0.02583954  0.14260458  0.04518599       0.006
  -0.01306721  0.16043015  0.04511521       0.006
  -0.00029488  0.17825572  0.04504443       0.003
   0.06356678 -0.05347672  0.04469053       0.006
   0.07633911 -0.03565114  0.04461975       0.006
   0.08911145 -0.01782557  0.04454897       0.006
   0.10188378  0.00000000  0.04447819       0.003
   0.05079445 -0.03565114  0.04476131       0.006
   0.06356678 -0.01782557  0.04469053       0.006
   0.07633911  0.00000000  0.04461975       0.003
   0.03802212 -0.01782557  0.04483209       0.006
   0.05079445  0.00000000  0.04476131       0.003
   0.02524979  0.00000000  0.04490287       0.003
  -0.00044231  0.00000000  0.06756664       0.003
   0.01233002  0.01782557  0.06749586       0.006
   0.02510235  0.03565114  0.06742508       0.006
   0.03787468  0.05347672  0.06735430       0.006
   0.05064701  0.07130229  0.06728352       0.006
   0.06341934  0.08912786  0.06721274       0.006
  -0.05153164 -0.07130229  0.06784977       0.006
  -0.03875931 -0.05347672  0.06777899       0.006
  -0.02598698 -0.03565114  0.06770820       0.006
  -0.01321465 -0.01782557  0.06763742       0.006
  -0.00044231  0.03565114  0.06756664       0.006
   0.01233002  0.05347672  0.06749586       0.006
   0.02510235  0.07130229  0.06742508       0.006
   0.03787468  0.08912786  0.06735430       0.006
   0.05064701  0.10695343  0.06728352       0.006
  -0.06430397 -0.05347672  0.06792055       0.006
  -0.05153164 -0.03565114  0.06784977       0.006
  -0.03875931 -0.01782557  0.06777899       0.006
  -0.02598698  0.00000000  0.06770820       0.003
  -0.01321465  0.05347672  0.06763742       0.006
  -0.00044231  0.07130229  0.06756664       0.006
   0.01233002  0.08912786  0.06749586       0.006
   0.02510235  0.10695343  0.06742508       0.006
   0.03787468  0.12477901  0.06735430       0.006
  -0.07707631 -0.03565114  0.06799133       0.006
  -0.06430397 -0.01782557  0.06792055       0.006
  -0.05153164  0.00000000  0.06784977       0.003
  -0.02598698  0.07130229  0.06770820       0.006
  -0.01321465  0.08912786  0.06763742       0.006
  -0.00044231  0.10695343  0.06756664       0.006
   0.01233002  0.12477901  0.06749586       0.006
   0.02510235  0.14260458  0.06742508       0.006
  -0.08984864 -0.01782557  0.06806211       0.006
  -0.07707631  0.00000000  0.06799133       0.003
  -0.03875931  0.08912786  0.06777899       0.006
  -0.02598698  0.10695343  0.06770820       0.006
  -0.01321465  0.12477901  0.06763742       0.006
  -0.00044231  0.14260458  0.06756664       0.006
   0.01233002  0.16043015  0.06749586       0.006
  -0.10262097  0.00000000  0.06813289       0.003
  -0.05153164  0.10695343  0.06784977       0.006
  -0.03875931  0.12477901  0.06777899       0.006
  -0.02598698  0.14260458  0.06770820       0.006
  -0.01321465  0.16043015  0.06763742       0.006
  -0.00044231  0.17825572  0.06756664       0.003
   0.06341934 -0.05347672  0.06721274       0.006
   0.07619168 -0.03565114  0.06714196       0.006
   0.08896401 -0.01782557  0.06707118       0.006
   0.10173634  0.00000000  0.06700040       0.003
   0.05064701 -0.03565114  0.06728352       0.006
   0.06341934 -0.01782557  0.06721274       0.006
   0.07619168  0.00000000  0.06714196       0.003
   0.03787468 -0.01782557  0.06735430       0.006
   0.05064701  0.00000000  0.06728352       0.003
   0.02510235  0.00000000  0.06742508       0.003
 
 k-points in reciprocal lattice and weights: KPOINTS                                 
   0.00000000  0.00000000  0.00000000       0.001
   0.10000000  0.00000000  0.00000000       0.006
   0.20000000  0.00000000  0.00000000       0.006
   0.30000000  0.00000000  0.00000000       0.006
   0.40000000  0.00000000  0.00000000       0.006
   0.50000000  0.00000000  0.00000000       0.003
   0.10000000  0.10000000  0.00000000       0.003
   0.20000000  0.10000000  0.00000000       0.006
   0.30000000  0.10000000  0.00000000       0.006
   0.40000000  0.10000000  0.00000000       0.006
   0.50000000  0.10000000  0.00000000       0.006
  -0.40000000  0.10000000  0.00000000       0.006
  -0.30000000  0.10000000  0.00000000       0.006
  -0.20000000  0.10000000  0.00000000       0.006
  -0.10000000  0.10000000  0.00000000       0.003
   0.20000000  0.20000000  0.00000000       0.003
   0.30000000  0.20000000  0.00000000       0.006
   0.40000000  0.20000000  0.00000000       0.006
   0.50000000  0.20000000  0.00000000       0.006
  -0.40000000  0.20000000  0.00000000       0.006
  -0.30000000  0.20000000  0.00000000       0.006
  -0.20000000  0.20000000  0.00000000       0.003
   0.30000000  0.30000000  0.00000000       0.003
   0.40000000  0.30000000  0.00000000       0.006
   0.50000000  0.30000000  0.00000000       0.006
  -0.40000000  0.30000000  0.00000000       0.006
  -0.30000000  0.30000000  0.00000000       0.003
   0.40000000  0.40000000  0.00000000       0.003
   0.50000000  0.40000000  0.00000000       0.006
  -0.40000000  0.40000000  0.00000000       0.003
   0.50000000  0.50000000  0.00000000       0.001
   0.00000000  0.00000000  0.14285714       0.003
   0.10000000  0.00000000  0.14285714       0.006
   0.20000000  0.00000000  0.14285714       0.006
   0.30000000  0.00000000  0.14285714       0.006
   0.40000000  0.00000000  0.14285714       0.006
   0.50000000  0.00000000  0.14285714       0.006
  -0.40000000  0.00000000  0.14285714       0.006
  -0.30000000  0.00000000  0.14285714       0.006
  -0.20000000  0.00000000  0.14285714       0.006
  -0.10000000  0.00000000  0.14285714       0.006
   0.10000000  0.10000000  0.14285714       0.006
   0.20000000  0.10000000  0.14285714       0.006
   0.30000000  0.10000000  0.14285714       0.006
   0.40000000  0.10000000  0.14285714       0.006
   0.50000000  0.10000000  0.14285714       0.006
  -0.40000000  0.10000000  0.14285714       0.006
  -0.30000000  0.10000000  0.14285714       0.006
  -0.20000000  0.10000000  0.14285714       0.006
  -0.10000000  0.10000000  0.14285714       0.003
   0.10000000  0.20000000  0.14285714       0.006
   0.20000000  0.20000000  0.14285714       0.006
   0.30000000  0.20000000  0.14285714       0.006
   0.40000000  0.20000000  0.14285714       0.006
   0.50000000  0.20000000  0.14285714       0.006
  -0.40000000  0.20000000  0.14285714       0.006
  -0.30000000  0.20000000  0.14285714       0.006
  -0.20000000  0.20000000  0.14285714       0.003
   0.10000000  0.30000000  0.14285714       0.006
   0.20000000  0.30000000  0.14285714       0.006
   0.30000000  0.30000000  0.14285714       0.006
   0.40000000  0.30000000  0.14285714       0.006
   0.50000000  0.30000000  0.14285714       0.006
  -0.40000000  0.30000000  0.14285714       0.006
  -0.30000000  0.30000000  0.14285714       0.003
   0.10000000  0.40000000  0.14285714       0.006
   0.20000000  0.40000000  0.14285714       0.006
   0.30000000  0.40000000  0.14285714       0.006
   0.40000000  0.40000000  0.14285714       0.006
   0.50000000  0.40000000  0.14285714       0.006
  -0.40000000  0.40000000  0.14285714       0.003
   0.10000000  0.50000000  0.14285714       0.006
   0.20000000  0.50000000  0.14285714       0.006
   0.30000000  0.50000000  0.14285714       0.006
   0.40000000  0.50000000  0.14285714       0.006
   0.50000000  0.50000000  0.14285714       0.003
   0.10000000 -0.40000000  0.14285714       0.006
   0.20000000 -0.40000000  0.14285714       0.006
   0.30000000 -0.40000000  0.14285714       0.006
   0.40000000 -0.40000000  0.14285714       0.003
   0.10000000 -0.30000000  0.14285714       0.006
   0.20000000 -0.30000000  0.14285714       0.006
   0.30000000 -0.30000000  0.14285714       0.003
   0.10000000 -0.20000000  0.14285714       0.006
   0.20000000 -0.20000000  0.14285714       0.003
   0.10000000 -0.10000000  0.14285714       0.003
   0.00000000  0.00000000  0.28571429       0.003
   0.10000000  0.00000000  0.28571429       0.006
   0.20000000  0.00000000  0.28571429       0.006
   0.30000000  0.00000000  0.28571429       0.006
   0.40000000  0.00000000  0.28571429       0.006
   0.50000000  0.00000000  0.28571429       0.006
  -0.40000000  0.00000000  0.28571429       0.006
  -0.30000000  0.00000000  0.28571429       0.006
  -0.20000000  0.00000000  0.28571429       0.006
  -0.10000000  0.00000000  0.28571429       0.006
   0.10000000  0.10000000  0.28571429       0.006
   0.20000000  0.10000000  0.28571429       0.006
   0.30000000  0.10000000  0.28571429       0.006
   0.40000000  0.10000000  0.28571429       0.006
   0.50000000  0.10000000  0.28571429       0.006
  -0.40000000  0.10000000  0.28571429       0.006
  -0.30000000  0.10000000  0.28571429       0.006
  -0.20000000  0.10000000  0.28571429       0.006
  -0.10000000  0.10000000  0.28571429       0.003
   0.10000000  0.20000000  0.28571429       0.006
   0.20000000  0.20000000  0.28571429       0.006
   0.30000000  0.20000000  0.28571429       0.006
   0.40000000  0.20000000  0.28571429       0.006
   0.50000000  0.20000000  0.28571429       0.006
  -0.40000000  0.20000000  0.28571429       0.006
  -0.30000000  0.20000000  0.28571429       0.006
  -0.20000000  0.20000000  0.28571429       0.003
   0.10000000  0.30000000  0.28571429       0.006
   0.20000000  0.30000000  0.28571429       0.006
   0.30000000  0.30000000  0.28571429       0.006
   0.40000000  0.30000000  0.28571429       0.006
   0.50000000  0.30000000  0.28571429       0.006
  -0.40000000  0.30000000  0.28571429       0.006
  -0.30000000  0.30000000  0.28571429       0.003
   0.10000000  0.40000000  0.28571429       0.006
   0.20000000  0.40000000  0.28571429       0.006
   0.30000000  0.40000000  0.28571429       0.006
   0.40000000  0.40000000  0.28571429       0.006
   0.50000000  0.40000000  0.28571429       0.006
  -0.40000000  0.40000000  0.28571429       0.003
   0.10000000  0.50000000  0.28571429       0.006
   0.20000000  0.50000000  0.28571429       0.006
   0.30000000  0.50000000  0.28571429       0.006
   0.40000000  0.50000000  0.28571429       0.006
   0.50000000  0.50000000  0.28571429       0.003
   0.10000000 -0.40000000  0.28571429       0.006
   0.20000000 -0.40000000  0.28571429       0.006
   0.30000000 -0.40000000  0.28571429       0.006
   0.40000000 -0.40000000  0.28571429       0.003
   0.10000000 -0.30000000  0.28571429       0.006
   0.20000000 -0.30000000  0.28571429       0.006
   0.30000000 -0.30000000  0.28571429       0.003
   0.10000000 -0.20000000  0.28571429       0.006
   0.20000000 -0.20000000  0.28571429       0.003
   0.10000000 -0.10000000  0.28571429       0.003
   0.00000000  0.00000000  0.42857143       0.003
   0.10000000  0.00000000  0.42857143       0.006
   0.20000000  0.00000000  0.42857143       0.006
   0.30000000  0.00000000  0.42857143       0.006
   0.40000000  0.00000000  0.42857143       0.006
   0.50000000  0.00000000  0.42857143       0.006
  -0.40000000  0.00000000  0.42857143       0.006
  -0.30000000  0.00000000  0.42857143       0.006
  -0.20000000  0.00000000  0.42857143       0.006
  -0.10000000  0.00000000  0.42857143       0.006
   0.10000000  0.10000000  0.42857143       0.006
   0.20000000  0.10000000  0.42857143       0.006
   0.30000000  0.10000000  0.42857143       0.006
   0.40000000  0.10000000  0.42857143       0.006
   0.50000000  0.10000000  0.42857143       0.006
  -0.40000000  0.10000000  0.42857143       0.006
  -0.30000000  0.10000000  0.42857143       0.006
  -0.20000000  0.10000000  0.42857143       0.006
  -0.10000000  0.10000000  0.42857143       0.003
   0.10000000  0.20000000  0.42857143       0.006
   0.20000000  0.20000000  0.42857143       0.006
   0.30000000  0.20000000  0.42857143       0.006
   0.40000000  0.20000000  0.42857143       0.006
   0.50000000  0.20000000  0.42857143       0.006
  -0.40000000  0.20000000  0.42857143       0.006
  -0.30000000  0.20000000  0.42857143       0.006
  -0.20000000  0.20000000  0.42857143       0.003
   0.10000000  0.30000000  0.42857143       0.006
   0.20000000  0.30000000  0.42857143       0.006
   0.30000000  0.30000000  0.42857143       0.006
   0.40000000  0.30000000  0.42857143       0.006
   0.50000000  0.30000000  0.42857143       0.006
  -0.40000000  0.30000000  0.42857143       0.006
  -0.30000000  0.30000000  0.42857143       0.003
   0.10000000  0.40000000  0.42857143       0.006
   0.20000000  0.40000000  0.42857143       0.006
   0.30000000  0.40000000  0.42857143       0.006
   0.40000000  0.40000000  0.42857143       0.006
   0.50000000  0.40000000  0.42857143       0.006
  -0.40000000  0.40000000  0.42857143       0.003
   0.10000000  0.50000000  0.42857143       0.006
   0.20000000  0.50000000  0.42857143       0.006
   0.30000000  0.50000000  0.42857143       0.006
   0.40000000  0.50000000  0.42857143       0.006
   0.50000000  0.50000000  0.42857143       0.003
   0.10000000 -0.40000000  0.42857143       0.006
   0.20000000 -0.40000000  0.42857143       0.006
   0.30000000 -0.40000000  0.42857143       0.006
   0.40000000 -0.40000000  0.42857143       0.003
   0.10000000 -0.30000000  0.42857143       0.006
   0.20000000 -0.30000000  0.42857143       0.006
   0.30000000 -0.30000000  0.42857143       0.003
   0.10000000 -0.20000000  0.42857143       0.006
   0.20000000 -0.20000000  0.42857143       0.003
   0.10000000 -0.10000000  0.42857143       0.003
 
 position of ions in fractional coordinates (direct lattice) 
   0.99999781  0.99999933  0.50000046
   0.63145840  0.36853839  0.73698778
   0.36853942  0.63145737  0.26301312
   0.00000000  0.00000000  0.00000000
   0.24946351  0.75053328  0.48432713
   0.72634089  0.27365590  0.97304258
   0.22952292  0.24399202  0.26782030
   0.24399305  0.22952189  0.73217902
   0.77047847  0.75600730  0.73217902
   0.75600834  0.77047743  0.26782030
   0.75053431  0.24946248  0.51567377
   0.27365565  0.72634114  0.02695833
 
 position of ions in cartesian coordinates  (Angst):
   0.01757005  5.60990998  3.17158988
   1.05520005  2.80494999  4.68157985
  -1.02003995  2.80494999  1.66159991
   0.00000000  0.00000000  0.00000000
  -1.94458991  2.80494999  3.05932983
   1.80640006  2.80494999  6.18377981
  -0.04722997  1.32818999  1.69845993
   0.08239007  1.32818999  4.64470982
   0.08239007  4.28172998  4.64470982
  -0.04722997  4.28172998  1.69845993
   1.97975001  2.80494999  3.28384993
  -1.77124996  2.80494999  0.15939994
 


--------------------------------------------------------------------------------------------------------


 k-point  1 :   0.0000 0.0000 0.0000  plane waves:    3739
 k-point  2 :   0.1000 0.0000 0.0000  plane waves:    3742
 k-point  3 :   0.2000 0.0000 0.0000  plane waves:    3743
 k-point  4 :   0.3000 0.0000 0.0000  plane waves:    3744
 k-point  5 :   0.4000 0.0000 0.0000  plane waves:    3746
 k-point  6 :   0.5000 0.0000 0.0000  plane waves:    3752
 k-point  7 :   0.1000 0.1000 0.0000  plane waves:    3745
 k-point  8 :   0.2000 0.1000 0.0000  plane waves:    3751
 k-point  9 :   0.3000 0.1000 0.0000  plane waves:    3748
 k-point 10 :   0.4000 0.1000 0.0000  plane waves:    3749
 k-point 11 :   0.5000 0.1000 0.0000  plane waves:    3746
 k-point 12 :  -0.4000 0.1000 0.0000  plane waves:    3747
 k-point 13 :  -0.3000 0.1000 0.0000  plane waves:    3742
 k-point 14 :  -0.2000 0.1000 0.0000  plane waves:    3742
 k-point 15 :  -0.1000 0.1000 0.0000  plane waves:    3739
 k-point 16 :   0.2000 0.2000 0.0000  plane waves:    3753
 k-point 17 :   0.3000 0.2000 0.0000  plane waves:    3739
 k-point 18 :   0.4000 0.2000 0.0000  plane waves:    3745
 k-point 19 :   0.5000 0.2000 0.0000  plane waves:    3760
 k-point 20 :  -0.4000 0.2000 0.0000  plane waves:    3767
 k-point 21 :  -0.3000 0.2000 0.0000  plane waves:    3750
 k-point 22 :  -0.2000 0.2000 0.0000  plane waves:    3738
 k-point 23 :   0.3000 0.3000 0.0000  plane waves:    3750
 k-point 24 :   0.4000 0.3000 0.0000  plane waves:    3758
 k-point 25 :   0.5000 0.3000 0.0000  plane waves:    3765
 k-point 26 :  -0.4000 0.3000 0.0000  plane waves:    3770
 k-point 27 :  -0.3000 0.3000 0.0000  plane waves:    3754
 k-point 28 :   0.4000 0.4000 0.0000  plane waves:    3754
 k-point 29 :   0.5000 0.4000 0.0000  plane waves:    3770
 k-point 30 :  -0.4000 0.4000 0.0000  plane waves:    3779
 k-point 31 :   0.5000 0.5000 0.0000  plane waves:    3772
 k-point 32 :   0.0000 0.0000 0.1429  plane waves:    3737
 k-point 33 :   0.1000 0.0000 0.1429  plane waves:    3739
 k-point 34 :   0.2000 0.0000 0.1429  plane waves:    3744
 k-point 35 :   0.3000 0.0000 0.1429  plane waves:    3747
 k-point 36 :   0.4000 0.0000 0.1429  plane waves:    3741
 k-point 37 :   0.5000 0.0000 0.1429  plane waves:    3740
 k-point 38 :  -0.4000 0.0000 0.1429  plane waves:    3737
 k-point 39 :  -0.3000 0.0000 0.1429  plane waves:    3746
 k-point 40 :  -0.2000 0.0000 0.1429  plane waves:    3742
 k-point 41 :  -0.1000 0.0000 0.1429  plane waves:    3735
 k-point 42 :   0.1000 0.1000 0.1429  plane waves:    3744
 k-point 43 :   0.2000 0.1000 0.1429  plane waves:    3753
 k-point 44 :   0.3000 0.1000 0.1429  plane waves:    3752
 k-point 45 :   0.4000 0.1000 0.1429  plane waves:    3746
 k-point 46 :   0.5000 0.1000 0.1429  plane waves:    3742
 k-point 47 :  -0.4000 0.1000 0.1429  plane waves:    3744
 k-point 48 :  -0.3000 0.1000 0.1429  plane waves:    3747
 k-point 49 :  -0.2000 0.1000 0.1429  plane waves:    3732
 k-point 50 :  -0.1000 0.1000 0.1429  plane waves:    3738
 k-point 51 :   0.1000 0.2000 0.1429  plane waves:    3745
 k-point 52 :   0.2000 0.2000 0.1429  plane waves:    3749
 k-point 53 :   0.3000 0.2000 0.1429  plane waves:    3745
 k-point 54 :   0.4000 0.2000 0.1429  plane waves:    3744
 k-point 55 :   0.5000 0.2000 0.1429  plane waves:    3758
 k-point 56 :  -0.4000 0.2000 0.1429  plane waves:    3762
 k-point 57 :  -0.3000 0.2000 0.1429  plane waves:    3746
 k-point 58 :  -0.2000 0.2000 0.1429  plane waves:    3740
 k-point 59 :   0.1000 0.3000 0.1429  plane waves:    3738
 k-point 60 :   0.2000 0.3000 0.1429  plane waves:    3740
 k-point 61 :   0.3000 0.3000 0.1429  plane waves:    3753
 k-point 62 :   0.4000 0.3000 0.1429  plane waves:    3751
 k-point 63 :   0.5000 0.3000 0.1429  plane waves:    3762
 k-point 64 :  -0.4000 0.3000 0.1429  plane waves:    3764
 k-point 65 :  -0.3000 0.3000 0.1429  plane waves:    3772
 k-point 66 :   0.1000 0.4000 0.1429  plane waves:    3744
 k-point 67 :   0.2000 0.4000 0.1429  plane waves:    3744
 k-point 68 :   0.3000 0.4000 0.1429  plane waves:    3765
 k-point 69 :   0.4000 0.4000 0.1429  plane waves:    3754
 k-point 70 :   0.5000 0.4000 0.1429  plane waves:    3771
 k-point 71 :  -0.4000 0.4000 0.1429  plane waves:    3777
 k-point 72 :   0.1000 0.5000 0.1429  plane waves:    3739
 k-point 73 :   0.2000 0.5000 0.1429  plane waves:    3748
 k-point 74 :   0.3000 0.5000 0.1429  plane waves:    3774
 k-point 75 :   0.4000 0.5000 0.1429  plane waves:    3758
 k-point 76 :   0.5000 0.5000 0.1429  plane waves:    3784
 k-point 77 :   0.1000-0.4000 0.1429  plane waves:    3754
 k-point 78 :   0.2000-0.4000 0.1429  plane waves:    3762
 k-point 79 :   0.3000-0.4000 0.1429  plane waves:    3763
 k-point 80 :   0.4000-0.4000 0.1429  plane waves:    3767
 k-point 81 :   0.1000-0.3000 0.1429  plane waves:    3739
 k-point 82 :   0.2000-0.3000 0.1429  plane waves:    3749
 k-point 83 :   0.3000-0.3000 0.1429  plane waves:    3759
 k-point 84 :   0.1000-0.2000 0.1429  plane waves:    3746
 k-point 85 :   0.2000-0.2000 0.1429  plane waves:    3748
 k-point 86 :   0.1000-0.1000 0.1429  plane waves:    3747
 k-point 87 :   0.0000 0.0000 0.2857  plane waves:    3755
 k-point 88 :   0.1000 0.0000 0.2857  plane waves:    3735
 k-point 89 :   0.2000 0.0000 0.2857  plane waves:    3743
 k-point 90 :   0.3000 0.0000 0.2857  plane waves:    3745
 k-point 91 :   0.4000 0.0000 0.2857  plane waves:    3738
 k-point 92 :   0.5000 0.0000 0.2857  plane waves:    3737
 k-point 93 :  -0.4000 0.0000 0.2857  plane waves:    3738
 k-point 94 :  -0.3000 0.0000 0.2857  plane waves:    3738
 k-point 95 :  -0.2000 0.0000 0.2857  plane waves:    3743
 k-point 96 :  -0.1000 0.0000 0.2857  plane waves:    3738
 k-point 97 :   0.1000 0.1000 0.2857  plane waves:    3746
 k-point 98 :   0.2000 0.1000 0.2857  plane waves:    3747
 k-point 99 :   0.3000 0.1000 0.2857  plane waves:    3749
 k-point ** :   0.4000 0.1000 0.2857  plane waves:    3753
 k-point ** :   0.5000 0.1000 0.2857  plane waves:    3741
 k-point ** :  -0.4000 0.1000 0.2857  plane waves:    3753
 k-point ** :  -0.3000 0.1000 0.2857  plane waves:    3742
 k-point ** :  -0.2000 0.1000 0.2857  plane waves:    3743
 k-point ** :  -0.1000 0.1000 0.2857  plane waves:    3749
 k-point ** :   0.1000 0.2000 0.2857  plane waves:    3750
 k-point ** :   0.2000 0.2000 0.2857  plane waves:    3745
 k-point ** :   0.3000 0.2000 0.2857  plane waves:    3754
 k-point ** :   0.4000 0.2000 0.2857  plane waves:    3755
 k-point ** :   0.5000 0.2000 0.2857  plane waves:    3757
 k-point ** :  -0.4000 0.2000 0.2857  plane waves:    3758
 k-point ** :  -0.3000 0.2000 0.2857  plane waves:    3748
 k-point ** :  -0.2000 0.2000 0.2857  plane waves:    3741
 k-point ** :   0.1000 0.3000 0.2857  plane waves:    3739
 k-point ** :   0.2000 0.3000 0.2857  plane waves:    3746
 k-point ** :   0.3000 0.3000 0.2857  plane waves:    3758
 k-point ** :   0.4000 0.3000 0.2857  plane waves:    3757
 k-point ** :   0.5000 0.3000 0.2857  plane waves:    3769
 k-point ** :  -0.4000 0.3000 0.2857  plane waves:    3761
 k-point ** :  -0.3000 0.3000 0.2857  plane waves:    3748
 k-point ** :   0.1000 0.4000 0.2857  plane waves:    3737
 k-point ** :   0.2000 0.4000 0.2857  plane waves:    3750
 k-point ** :   0.3000 0.4000 0.2857  plane waves:    3758
 k-point ** :   0.4000 0.4000 0.2857  plane waves:    3761
 k-point ** :   0.5000 0.4000 0.2857  plane waves:    3761
 k-point ** :  -0.4000 0.4000 0.2857  plane waves:    3776
 k-point ** :   0.1000 0.5000 0.2857  plane waves:    3744
 k-point ** :   0.2000 0.5000 0.2857  plane waves:    3758
 k-point ** :   0.3000 0.5000 0.2857  plane waves:    3764
 k-point ** :   0.4000 0.5000 0.2857  plane waves:    3769
 k-point ** :   0.5000 0.5000 0.2857  plane waves:    3764
 k-point ** :   0.1000-0.4000 0.2857  plane waves:    3752
 k-point ** :   0.2000-0.4000 0.2857  plane waves:    3760
 k-point ** :   0.3000-0.4000 0.2857  plane waves:    3767
 k-point ** :   0.4000-0.4000 0.2857  plane waves:    3756
 k-point ** :   0.1000-0.3000 0.2857  plane waves:    3762
 k-point ** :   0.2000-0.3000 0.2857  plane waves:    3757
 k-point ** :   0.3000-0.3000 0.2857  plane waves:    3760
 k-point ** :   0.1000-0.2000 0.2857  plane waves:    3754
 k-point ** :   0.2000-0.2000 0.2857  plane waves:    3759
 k-point ** :   0.1000-0.1000 0.2857  plane waves:    3746
 k-point ** :   0.0000 0.0000 0.4286  plane waves:    3742
 k-point ** :   0.1000 0.0000 0.4286  plane waves:    3748
 k-point ** :   0.2000 0.0000 0.4286  plane waves:    3761
 k-point ** :   0.3000 0.0000 0.4286  plane waves:    3737
 k-point ** :   0.4000 0.0000 0.4286  plane waves:    3736
 k-point ** :   0.5000 0.0000 0.4286  plane waves:    3739
 k-point ** :  -0.4000 0.0000 0.4286  plane waves:    3740
 k-point ** :  -0.3000 0.0000 0.4286  plane waves:    3738
 k-point ** :  -0.2000 0.0000 0.4286  plane waves:    3747
 k-point ** :  -0.1000 0.0000 0.4286  plane waves:    3748
 k-point ** :   0.1000 0.1000 0.4286  plane waves:    3746
 k-point ** :   0.2000 0.1000 0.4286  plane waves:    3741
 k-point ** :   0.3000 0.1000 0.4286  plane waves:    3747
 k-point ** :   0.4000 0.1000 0.4286  plane waves:    3747
 k-point ** :   0.5000 0.1000 0.4286  plane waves:    3756
 k-point ** :  -0.4000 0.1000 0.4286  plane waves:    3745
 k-point ** :  -0.3000 0.1000 0.4286  plane waves:    3747
 k-point ** :  -0.2000 0.1000 0.4286  plane waves:    3746
 k-point ** :  -0.1000 0.1000 0.4286  plane waves:    3744
 k-point ** :   0.1000 0.2000 0.4286  plane waves:    3743
 k-point ** :   0.2000 0.2000 0.4286  plane waves:    3749
 k-point ** :   0.3000 0.2000 0.4286  plane waves:    3763
 k-point ** :   0.4000 0.2000 0.4286  plane waves:    3756
 k-point ** :   0.5000 0.2000 0.4286  plane waves:    3756
 k-point ** :  -0.4000 0.2000 0.4286  plane waves:    3750
 k-point ** :  -0.3000 0.2000 0.4286  plane waves:    3749
 k-point ** :  -0.2000 0.2000 0.4286  plane waves:    3755
 k-point ** :   0.1000 0.3000 0.4286  plane waves:    3742
 k-point ** :   0.2000 0.3000 0.4286  plane waves:    3761
 k-point ** :   0.3000 0.3000 0.4286  plane waves:    3770
 k-point ** :   0.4000 0.3000 0.4286  plane waves:    3755
 k-point ** :   0.5000 0.3000 0.4286  plane waves:    3758
 k-point ** :  -0.4000 0.3000 0.4286  plane waves:    3753
 k-point ** :  -0.3000 0.3000 0.4286  plane waves:    3751
 k-point ** :   0.1000 0.4000 0.4286  plane waves:    3749
 k-point ** :   0.2000 0.4000 0.4286  plane waves:    3766
 k-point ** :   0.3000 0.4000 0.4286  plane waves:    3760
 k-point ** :   0.4000 0.4000 0.4286  plane waves:    3749
 k-point ** :   0.5000 0.4000 0.4286  plane waves:    3767
 k-point ** :  -0.4000 0.4000 0.4286  plane waves:    3772
 k-point ** :   0.1000 0.5000 0.4286  plane waves:    3745
 k-point ** :   0.2000 0.5000 0.4286  plane waves:    3763
 k-point ** :   0.3000 0.5000 0.4286  plane waves:    3747
 k-point ** :   0.4000 0.5000 0.4286  plane waves:    3766
 k-point ** :   0.5000 0.5000 0.4286  plane waves:    3763
 k-point ** :   0.1000-0.4000 0.4286  plane waves:    3749
 k-point ** :   0.2000-0.4000 0.4286  plane waves:    3762
 k-point ** :   0.3000-0.4000 0.4286  plane waves:    3767
 k-point ** :   0.4000-0.4000 0.4286  plane waves:    3764
 k-point ** :   0.1000-0.3000 0.4286  plane waves:    3752
 k-point ** :   0.2000-0.3000 0.4286  plane waves:    3757
 k-point ** :   0.3000-0.3000 0.4286  plane waves:    3771
 k-point ** :   0.1000-0.2000 0.4286  plane waves:    3753
 k-point ** :   0.2000-0.2000 0.4286  plane waves:    3762
 k-point ** :   0.1000-0.1000 0.4286  plane waves:    3735

 maximum and minimum number of plane-waves per node :       965      903

 maximum number of plane-waves:      3784
 maximum index in each direction: 
   IXMAX=    9   IYMAX=    9   IZMAX=   11
   IXMIN=   -9   IYMIN=   -9   IZMIN=  -12

 WARNING: aliasing errors must be expected set NGX to  38 to avoid them
 WARNING: aliasing errors must be expected set NGY to  38 to avoid them
 WARNING: aliasing errors must be expected set NGZ to  48 to avoid them
 aliasing errors are usually negligible using standard VASP settings
 and one can safely disregard these warnings

 parallel 3D FFT for wavefunctions:
    minimum data exchange during FFTs selected (reduces bandwidth)
 parallel 3D FFT for charge:
    minimum data exchange during FFTs selected (reduces bandwidth)


 total amount of memory used by VASP on root node   287674. kBytes
========================================================================

   base      :      30000. kBytes
   nonl-proj :      81299. kBytes
   fftplans  :        592. kBytes
   grid      :       1479. kBytes
   one-center:         93. kBytes
   wavefun   :     174211. kBytes
 
 Broyden mixing: mesh for mixing (old mesh)
   NGX = 17   NGY = 17   NGZ = 23
  (NGX  = 40   NGY  = 40   NGZ  = 50)
  gives a total of   6647 points

 initial charge density was supplied:
 number of electron      79.0000811 magnetization       4.9999987
 keeping initial charge density in first step


--------------------------------------------------------------------------------------------------------


 Maximum index for augmentation-charges          461 (set IRDMAX)


--------------------------------------------------------------------------------------------------------


 First call to EWALD:  gamma=   0.342
 Maximum number of real-space cells 3x 3x 2
 Maximum number of reciprocal cells 3x 3x 3

 FEWALD executed in parallel
    FEWALD:  cpu time    0.00: real time    0.00


----------------------------------------- Iteration    1(   1)  ---------------------------------------


    POTLOK:  cpu time    0.89: real time    1.34
atom =   1  type =  1  l = 2
 
 onsite density matrix
 
spin component  1
 
  0.7192 -0.0005  0.0000  0.0000  0.0000
 -0.0005  0.7044  0.0000  0.0000  0.0000
  0.0000  0.0000  0.7065 -0.0003 -0.0061
  0.0000  0.0000 -0.0003  0.7150 -0.0005
  0.0000  0.0000 -0.0061 -0.0005  0.7192
 
spin component  2
 
  0.1264  0.0019  0.0000  0.0000  0.0000
  0.0019  0.1203  0.0000  0.0000  0.0000
  0.0000  0.0000  0.1275  0.0011 -0.0080
  0.0000  0.0000  0.0011  0.1341  0.0019
  0.0000  0.0000 -0.0080  0.0019  0.1264
 
 occupancies and eigenvectors
 
  o =  0.1187  v =  0.0000  0.0000  0.0000  0.0000  0.0000  0.0000  0.0000 -0.6717  0.1344 -0.7285      0.0000  0.0000  0.0000  0.0000  0.0000  0.0000  0.0000  0.0000  0.0000  0.0000
  o =  0.1198  v =  0.0000  0.0000  0.0000  0.0000  0.0000  0.2732 -0.9620  0.0000  0.0000  0.0000      0.0000  0.0000  0.0000  0.0000  0.0000  0.0000  0.0000  0.0000  0.0000  0.0000
  o =  0.1269  v =  0.0000  0.0000  0.0000  0.0000  0.0000 -0.9620 -0.2732  0.0000  0.0000  0.0000      0.0000  0.0000  0.0000  0.0000  0.0000  0.0000  0.0000  0.0000  0.0000  0.0000
  o =  0.1341  v =  0.0000  0.0000  0.0000  0.0000  0.0000  0.0000  0.0000  0.4552  0.8507 -0.2628      0.0000  0.0000  0.0000  0.0000  0.0000  0.0000  0.0000  0.0000  0.0000  0.0000
  o =  0.1352  v =  0.0000  0.0000  0.0000  0.0000  0.0000  0.0000  0.0000  0.5845 -0.5081 -0.6326      0.0000  0.0000  0.0000  0.0000  0.0000  0.0000  0.0000  0.0000  0.0000  0.0000
  o =  0.7040  v =  0.0000  0.0000  0.9258  0.0443  0.3754  0.0000  0.0000  0.0000  0.0000  0.0000      0.0000  0.0000  0.0000  0.0000  0.0000  0.0000  0.0000  0.0000  0.0000  0.0000
  o =  0.7044  v = -0.0360 -0.9994  0.0000  0.0000  0.0000  0.0000  0.0000  0.0000  0.0000  0.0000      0.0000  0.0000  0.0000  0.0000  0.0000  0.0000  0.0000  0.0000  0.0000  0.0000
  o =  0.7150  v =  0.0000  0.0000 -0.0623  0.9974  0.0360  0.0000  0.0000  0.0000  0.0000  0.0000      0.0000  0.0000  0.0000  0.0000  0.0000  0.0000  0.0000  0.0000  0.0000  0.0000
  o =  0.7192  v = -0.9994  0.0360  0.0000  0.0000  0.0000  0.0000  0.0000  0.0000  0.0000  0.0000      0.0000  0.0000  0.0000  0.0000  0.0000  0.0000  0.0000  0.0000  0.0000  0.0000
  o =  0.7217  v =  0.0000  0.0000 -0.3728 -0.0567  0.9262  0.0000  0.0000  0.0000  0.0000  0.0000      0.0000  0.0000  0.0000  0.0000  0.0000  0.0000  0.0000  0.0000  0.0000  0.0000
atom =   2  type =  1  l = 2
 
 onsite density matrix
 
spin component  1
 
  0.6412  0.0047  0.0000  0.0000  0.0000
  0.0047  0.4541  0.0000  0.0000  0.0000
  0.0000  0.0000  0.5463  0.0027 -0.1338
  0.0000  0.0000  0.0027  0.6859  0.0047
  0.0000  0.0000 -0.1338  0.0047  0.6412
 
spin component  2
 
  0.2976 -0.0019  0.0000  0.0000  0.0000
 -0.0019  0.3788  0.0000  0.0000  0.0000
  0.0000  0.0000  0.3847 -0.0011  0.0182
  0.0000  0.0000 -0.0011  0.3472 -0.0019
  0.0000  0.0000  0.0182 -0.0019  0.2976
 
 occupancies and eigenvectors
 
  o =  0.2939  v =  0.0000  0.0000  0.0000  0.0000  0.0000  0.0000  0.0000  0.1965 -0.0314 -0.9800      0.0000  0.0000  0.0000  0.0000  0.0000  0.0000  0.0000  0.0000  0.0000  0.0000
  o =  0.2976  v =  0.0000  0.0000  0.0000  0.0000  0.0000 -0.9997 -0.0238  0.0000  0.0000  0.0000      0.0000  0.0000  0.0000  0.0000  0.0000  0.0000  0.0000  0.0000  0.0000  0.0000
  o =  0.3472  v =  0.0000  0.0000  0.0000  0.0000  0.0000  0.0000  0.0000  0.0412  0.9989 -0.0238      0.0000  0.0000  0.0000  0.0000  0.0000  0.0000  0.0000  0.0000  0.0000  0.0000
  o =  0.3788  v =  0.0000  0.0000  0.0000  0.0000  0.0000  0.0238 -0.9997  0.0000  0.0000  0.0000      0.0000  0.0000  0.0000  0.0000  0.0000  0.0000  0.0000  0.0000  0.0000  0.0000
  o =  0.3885  v =  0.0000  0.0000  0.0000  0.0000  0.0000  0.0000  0.0000  0.9796 -0.0357  0.1975      0.0000  0.0000  0.0000  0.0000  0.0000  0.0000  0.0000  0.0000  0.0000  0.0000
  o =  0.4517  v =  0.0000  0.0000  0.8165 -0.0210  0.5769  0.0000  0.0000  0.0000  0.0000  0.0000      0.0000  0.0000  0.0000  0.0000  0.0000  0.0000  0.0000  0.0000  0.0000  0.0000
  o =  0.4540  v = -0.0250  0.9997  0.0000  0.0000  0.0000  0.0000  0.0000  0.0000  0.0000  0.0000      0.0000  0.0000  0.0000  0.0000  0.0000  0.0000  0.0000  0.0000  0.0000  0.0000
  o =  0.6414  v = -0.9997 -0.0250  0.0000  0.0000  0.0000  0.0000  0.0000  0.0000  0.0000  0.0000      0.0000  0.0000  0.0000  0.0000  0.0000  0.0000  0.0000  0.0000  0.0000  0.0000
  o =  0.6859  v =  0.0000  0.0000 -0.0433 -0.9987  0.0250  0.0000  0.0000  0.0000  0.0000  0.0000      0.0000  0.0000  0.0000  0.0000  0.0000  0.0000  0.0000  0.0000  0.0000  0.0000
[...]
  band No.  band energies     occupation 
      1     -15.3848      1.00000
      2     -15.1581      1.00000
      3     -14.5826      1.00000
      4     -14.5482      1.00000
      5     -14.3979      1.00000
      6     -14.3157      1.00000
      7     -14.2624      1.00000
      8     -14.1843      1.00000
      9     -10.0635      1.00000
     10     -10.0279      1.00000
     11      -9.9874      1.00000
     12      -9.7786      1.00000
     13      -9.7289      1.00000
     14      -2.7155      1.00000
     15      -2.3167      1.00000
     16      -1.8221      1.00000
     17      -1.6780      1.00000
     18      -1.5332      1.00000
     19      -1.3208      1.00000
     20      -1.2988      1.00000
     21      -1.2212      1.00000
     22      -1.1303      1.00000
     23      -0.9884      1.00000
     24      -0.6934      1.00000
     25      -0.4977      1.00000
     26      -0.3735      1.00000
     27      -0.2967      1.00000
     28       0.0644      1.00000
     29       0.2738      1.00000
     30       0.6024      1.00000
     31       0.6767      1.00000
     32       1.0390      1.00000
     33       1.1281      1.00000
     34       1.3349      1.00000
     35       1.3510      1.00000
     36       1.7358      1.00000
     37       1.9123      1.00000
     38       5.5225      0.00000
     39       5.7335      0.00000
     40       5.7371      0.00000
     41       5.9563      0.00000
     42       6.2728      0.00000
     43       6.3541      0.00000
     44       6.3585      0.00000
     45       6.4177      0.00000
     46       6.6014      0.00000
     47       6.7345      0.00000
     48       7.6213      0.00000
     49       7.8594      0.00000
     50       8.0590      0.00000
     51       8.2860      0.00000
     52       8.5287      0.00000
     53       8.8921      0.00000
     54      10.9435      0.00000
     55      11.7673      0.00000
     56      12.6206      0.00000


--------------------------------------------------------------------------------------------------------


 soft charge-density along one line, spin component           1
         0         1         2         3         4         5         6         7         8         9
 total charge-density along one line
 
 soft charge-density along one line, spin component           2
         0         1         2         3         4         5         6         7         8         9
 total charge-density along one line
 
 pseudopotential strength for first ion, spin component:           1
 -6.767   0.238   0.000  -0.001   0.000  -0.044  -0.033   0.000
  0.238  -4.831   0.000  -0.002   0.000  -0.033  -0.302   0.000
  0.000   0.000  -6.435   0.163  -0.846   0.000   0.000  -0.085
 -0.001  -0.002   0.163  -6.828  -0.311   0.000   0.000  -0.023
  0.000   0.000  -0.846  -0.311  -5.524   0.000   0.000   0.116
 -0.044  -0.033   0.000   0.000   0.000   0.476   0.021   0.000
 -0.033  -0.302   0.000   0.000   0.000   0.021   0.649   0.000
  0.000   0.000  -0.085  -0.023   0.116   0.000   0.000   0.507
  0.000   0.000  -0.023  -0.034   0.041   0.000   0.000   0.014
  0.000   0.000   0.116   0.041  -0.213   0.000   0.000  -0.075
  0.000   0.000   0.004  -0.002  -0.003   0.000   0.000  -0.001
  0.000   0.000  -0.001   0.000   0.000   0.000   0.000   0.000
  0.000   0.000   0.000   0.000   0.000   0.000   0.000   0.000
  0.000   0.000   0.000   0.000   0.000   0.000   0.000   0.000
  0.000   0.000   0.000   0.000   0.000   0.000   0.000   0.000
  0.000   0.000   0.000   0.000   0.000   0.000   0.000   0.000
  0.000   0.000   0.000   0.000   0.000   0.000   0.000   0.000
  0.000   0.000   0.000   0.000   0.000   0.000   0.000   0.000
 pseudopotential strength for first ion, spin component:           2
 -2.164  -0.100   0.001   0.001  -0.001  -0.901   0.019   0.000
 -0.100  -3.271   0.001   0.001  -0.001   0.019  -0.693   0.000
  0.001   0.001  -2.431  -0.090   0.498   0.000   0.000  -0.851
  0.001   0.001  -0.090  -2.186   0.153   0.000   0.000   0.016
 -0.001  -0.001   0.498   0.153  -2.923   0.000   0.000  -0.090
 -0.901   0.019   0.000   0.000   0.000   0.867  -0.008   0.000
  0.019  -0.693   0.000   0.000   0.000  -0.008   0.781   0.000
  0.000   0.000  -0.851   0.016  -0.090   0.000   0.000   0.847
  0.000   0.000   0.016  -0.898  -0.030   0.000   0.000  -0.007
  0.000   0.000  -0.090  -0.030  -0.763   0.000   0.000   0.040
  0.000   0.000   0.005  -0.002  -0.002   0.000   0.000  -0.001
  0.000   0.000  -0.001   0.000   0.000   0.000   0.000   0.000
  0.000   0.000   0.000   0.000   0.000   0.000   0.000   0.000
  0.000   0.000   0.000   0.000   0.000   0.000   0.000   0.000
  0.000   0.000   0.000   0.000   0.000   0.000   0.000   0.000
  0.000   0.000   0.000   0.000   0.000   0.000   0.000   0.000
  0.000   0.000   0.000   0.000   0.000   0.000   0.000   0.000
  0.000   0.000   0.000   0.000   0.000   0.000   0.000   0.000
 total augmentation occupancy for first ion, spin component:           1
  1.031  -0.040   0.000   0.000   0.000  -0.159   0.076   0.000  -0.001   0.000   0.001   0.001   0.000   0.000   0.000   0.000
 -0.040   0.752   0.000   0.000   0.001   0.072   0.683   0.000  -0.002   0.000   0.000   0.000   0.000   0.000   0.000   0.000
  0.000   0.000   0.994  -0.020   0.095   0.000   0.000   0.066   0.056  -0.412   0.000  -0.012   0.000   0.000   0.000   0.000
  0.000   0.000  -0.020   1.049   0.051   0.000  -0.001   0.057  -0.153  -0.115  -0.012  -0.005   0.000   0.000   0.000   0.000
  0.000   0.001   0.095   0.051   0.886   0.000   0.000  -0.418  -0.115   0.448   0.032  -0.021   0.000   0.000   0.000   0.000
 -0.159   0.072   0.000   0.000   0.000   0.405  -0.018  -0.001   0.000  -0.001  -0.006  -0.001   0.000   0.000   0.000   0.000
  0.076   0.683   0.000  -0.001   0.000  -0.018   0.816   0.000   0.000   0.000   0.002   0.000   0.000   0.000   0.000   0.000
  0.000   0.000   0.066   0.057  -0.418  -0.001   0.000   0.592   0.019  -0.231   0.072  -0.023   0.000   0.000   0.000   0.000
 -0.001  -0.002   0.056  -0.153  -0.115   0.000   0.000   0.019   0.473   0.035  -0.001   0.007   0.000   0.000   0.000   0.000
  0.000   0.000  -0.412  -0.115   0.448  -0.001   0.000  -0.231   0.035   0.756   0.067  -0.040   0.000   0.000   0.000   0.000
  0.001   0.000   0.000  -0.012   0.032  -0.006   0.002   0.072  -0.001   0.067   1.154  -0.374   0.000   0.000   0.000   0.000
  0.001   0.000  -0.012  -0.005  -0.021  -0.001   0.000  -0.023   0.007  -0.040  -0.374   0.215   0.000   0.000   0.000   0.000
  0.000   0.000   0.000   0.000   0.000   0.000   0.000   0.000   0.000   0.000   0.000   0.000   0.304   0.001   0.000  -0.015
  0.000   0.000   0.000   0.000   0.000   0.000   0.000   0.000   0.000   0.000   0.000   0.000   0.001   0.340   0.000   0.000
  0.000   0.000   0.000   0.000   0.000   0.000   0.000   0.000   0.000   0.000   0.000   0.000   0.000   0.000   0.348   0.000
  0.000   0.000   0.000   0.000   0.000   0.000   0.000   0.000   0.000   0.000   0.000   0.000  -0.015   0.000   0.000   0.001
  0.000   0.000   0.000   0.000   0.000   0.000   0.000   0.000   0.000   0.000   0.000   0.000   0.000  -0.019   0.000   0.000
  0.000   0.000   0.000   0.000   0.000   0.000   0.000   0.000   0.000   0.000   0.000   0.000   0.000   0.000  -0.018   0.000
 total augmentation occupancy for first ion, spin component:           2
  0.884  -0.080   0.000   0.001   0.000  -0.324   0.044   0.001   0.000   0.000   0.003   0.000   0.000   0.000   0.000   0.000
 -0.080   0.138   0.000   0.001   0.000   0.038  -0.027   0.000  -0.001   0.000  -0.001   0.000   0.000   0.000   0.000   0.000
  0.000   0.000   0.738  -0.064   0.328   0.001   0.000  -0.257   0.018  -0.132  -0.032   0.001   0.000   0.000   0.000   0.000
  0.001   0.001  -0.064   0.887   0.105   0.000   0.000   0.019  -0.338  -0.065  -0.007  -0.007   0.000   0.000   0.000   0.000
  0.000   0.000   0.328   0.105   0.394   0.000   0.000  -0.139  -0.065  -0.128  -0.001   0.003   0.000   0.000   0.000   0.000
 -0.324   0.038   0.001   0.000   0.000   0.218  -0.050  -0.001   0.000   0.000  -0.004  -0.001   0.000   0.000   0.000   0.000
  0.044  -0.027   0.000   0.000   0.000  -0.050  -0.091   0.000   0.000   0.000   0.001   0.000   0.000   0.000   0.000   0.000
  0.001   0.000  -0.257   0.019  -0.139  -0.001   0.000   0.156  -0.017   0.144   0.023   0.000   0.000   0.000   0.000   0.000
  0.000  -0.001   0.018  -0.338  -0.065   0.000   0.000  -0.017   0.256   0.089   0.006   0.003   0.000   0.000   0.000   0.000
  0.000   0.000  -0.132  -0.065  -0.128   0.000   0.000   0.144   0.089   0.011   0.007   0.002   0.000   0.000   0.000   0.000
  0.003  -0.001  -0.032  -0.007  -0.001  -0.004   0.001   0.023   0.006   0.007   0.119   0.064   0.000   0.000   0.000   0.000
  0.000   0.000   0.001  -0.007   0.003  -0.001   0.000   0.000   0.003   0.002   0.064  -0.043   0.000   0.000   0.000   0.000
  0.000   0.000   0.000   0.000   0.000   0.000   0.000   0.000   0.000   0.000   0.000   0.000   0.019   0.000   0.000   0.002
  0.000   0.000   0.000   0.000   0.000   0.000   0.000   0.000   0.000   0.000   0.000   0.000   0.000   0.019   0.000   0.000
  0.000   0.000   0.000   0.000   0.000   0.000   0.000   0.000   0.000   0.000   0.000   0.000   0.000   0.000   0.026   0.000
  0.000   0.000   0.000   0.000   0.000   0.000   0.000   0.000   0.000   0.000   0.000   0.000   0.002   0.000   0.000   0.000
  0.000   0.000   0.000   0.000   0.000   0.000   0.000   0.000   0.000   0.000   0.000   0.000   0.000   0.002   0.000   0.000
  0.000   0.000   0.000   0.000   0.000   0.000   0.000   0.000   0.000   0.000   0.000   0.000   0.000   0.000   0.003   0.000


------------------------ aborting loop because EDIFF is reached ----------------------------------------


 


 total charge     
 
# of ion     s       p       d       tot
----------------------------------------
  1        0.410   0.707   4.201   5.318
  2        0.642   1.037   4.677   6.357
  3        0.642   1.037   4.677   6.357
  4        0.624   0.633  10.076  11.333
  5        1.591   3.399   0.000   4.990
  6        1.588   3.392   0.000   4.980
  7        1.570   3.471   0.000   5.041
  8        1.570   3.474   0.000   5.044
  9        1.570   3.471   0.000   5.041
 10        1.570   3.474   0.000   5.044
 11        1.591   3.399   0.000   4.990
 12        1.588   3.392   0.000   4.980
------------------------------------------------
tot       14.956  30.886  23.632  69.474
 


 magnetization (x)
 
# of ion     s       p       d       tot
----------------------------------------
  1        0.024   0.036   2.931   2.991
  2        0.013   0.003   1.259   1.275
  3        0.013   0.003   1.259   1.275
  4        0.023   0.008  -0.001   0.029
  5       -0.002  -0.150   0.000  -0.152
  6       -0.001  -0.080   0.000  -0.081
  7       -0.001  -0.033   0.000  -0.035
  8       -0.001  -0.033   0.000  -0.034
  9       -0.001  -0.033   0.000  -0.035
 10       -0.001  -0.033   0.000  -0.034
 11       -0.002  -0.150   0.000  -0.152
 12       -0.001  -0.080   0.000  -0.081
------------------------------------------------
tot        0.060  -0.542   5.448   4.966
 
    CHARGE:  cpu time    2.18: real time    2.19
    FORLOC:  cpu time    0.00: real time    0.00
    FORNL :  cpu time   36.18: real time   36.20
    STRESS:  cpu time   28.76: real time   28.78
    FORCOR:  cpu time    0.04: real time    0.04
    FORHAR:  cpu time    0.01: real time    0.01
    MIXING:  cpu time    0.00: real time    0.00
    FORVDW:  cpu time    0.00: real time    0.00

  FORCE on cell =-STRESS in cart. coord.  units (eV):
  Direction    XX          YY          ZZ          XY          YZ          ZX
  --------------------------------------------------------------------------------------
  Alpha Z   262.10758   262.10758   262.10758
  Ewald   -1673.57538 -1615.67641 -1237.67306     0.00000     0.00000    25.90870
  Hartree   460.46614   496.76093   663.11256     0.00000     0.00000    20.09573
  E(xc)    -387.46110  -386.66470  -387.48201     0.00000     0.00000     0.08446
  Local    -100.37724  -173.21667  -703.14369     0.00000     0.00000   -47.48185
  n-local  -175.33381  -168.57323  -163.52170    -0.16042     0.10808    -0.34332
  augment   303.23330   294.89437   293.58772     0.01296     0.01998     0.44568
  Kinetic  1318.48002  1299.66591  1281.50316     0.12143    -0.10925     1.45408
  Fock        0.00000     0.00000     0.00000     0.00000     0.00000     0.00000
  -------------------------------------------------------------------------------------
  Total       7.53949     9.29779     8.49055     0.00868    -0.00627     0.16348
  in kB      86.71409   106.93685    97.65248     0.09981    -0.07215     1.88023
  external pressure =       97.10 kB  Pullay stress =        0.00 kB


 VOLUME and BASIS-vectors are now :
 -----------------------------------------------------------------------------
  energy-cutoff  :      520.00
  volume of cell :      139.30
      direct lattice vectors                 reciprocal lattice vectors
     3.914854000  2.804959000  0.025628000     0.127723317  0.178255725 -0.000707805
    -3.914854000  2.804959000 -0.025628000    -0.127723317  0.178255725  0.000707805
     0.035152000  0.000000000  6.343174000    -0.001032068  0.000000000  0.157655502

  length of vectors
     4.816070351  4.816070351  6.343271400     0.219291701  0.219291701  0.157658880


 FORCES acting on ions
    electron-ion (+dipol)            ewald-force                    non-local-force                 convergence-correction
 -----------------------------------------------------------------------------------------------
   0.707E-03 0.326E-02 -.698E-03   0.147E-02 0.110E-02 -.165E-02   -.995E-04 -.245E-03 0.148E-03   0.389E-04 -.623E-04 0.506E-04
   0.267E+02 0.295E-02 0.205E+02   -.277E+02 0.293E-02 -.205E+02   0.102E+01 -.430E-01 -.634E-01   -.617E-02 -.965E-04 0.244E-01
   -.267E+02 0.296E-02 -.205E+02   0.277E+02 0.293E-02 0.205E+02   -.102E+01 0.424E-01 0.634E-01   0.625E-02 -.335E-04 -.244E-01
   0.217E-02 0.613E-04 0.178E-02   -.811E-03 -.224E-03 -.790E-03   -.172E-03 0.123E-03 -.157E-03   0.848E-04 0.310E-05 -.891E-04
   -.288E+02 0.141E-01 -.101E+03   0.298E+02 0.276E-03 0.123E+03   -.942E+00 -.111E-02 -.218E+02   0.611E-02 -.377E-04 -.552E-02
   0.642E+02 0.141E-01 -.101E+03   -.662E+02 0.156E-03 0.123E+03   0.190E+01 0.636E-01 -.222E+02   0.269E-02 -.144E-03 0.313E-02
   -.428E+02 -.687E+02 -.470E+02   0.559E+02 0.668E+02 0.473E+02   -.131E+02 0.189E+01 -.267E+00   0.949E-03 -.106E-02 -.256E-01
   0.428E+02 -.687E+02 0.470E+02   -.559E+02 0.668E+02 -.473E+02   0.131E+02 0.187E+01 0.270E+00   -.767E-03 -.115E-02 0.256E-01
   0.428E+02 0.687E+02 0.470E+02   -.559E+02 -.668E+02 -.473E+02   0.131E+02 -.189E+01 0.266E+00   -.881E-03 0.123E-02 0.255E-01
   -.428E+02 0.687E+02 -.470E+02   0.559E+02 -.668E+02 0.473E+02   -.131E+02 -.187E+01 -.270E+00   0.966E-03 0.113E-02 -.256E-01
   0.288E+02 0.141E-01 0.101E+03   -.298E+02 0.276E-03 -.123E+03   0.943E+00 -.481E-03 0.218E+02   -.623E-02 -.845E-04 0.554E-02
   -.642E+02 0.141E-01 0.101E+03   0.662E+02 0.156E-03 -.123E+03   -.190E+01 -.652E-01 0.222E+02   -.279E-02 -.157E-04 -.310E-02
 -----------------------------------------------------------------------------------------------
   -.279E-01 0.611E-01 -.701E-02   0.000E+00 -.207E-13 0.284E-13   0.163E-02 -.274E-02 0.245E-03   0.244E-03 -.316E-03 -.130E-05
 
 
 POSITION                                       TOTAL-FORCE (eV/Angst)
 -----------------------------------------------------------------------------------
      0.01757      5.60991      3.17159         0.001429     -0.000263     -0.000529
      1.05520      2.80495      4.68158         0.001738      0.014464     -0.028343
     -1.02004      2.80495      1.66160        -0.001494     -0.014037      0.028433
      0.00000      0.00000      0.00000         0.001146     -0.001625      0.000436
     -1.94459      2.80495      3.05933         0.036509      0.003000     -0.036249
      1.80640      2.80495      6.18378        -0.050651     -0.018597      0.051953
     -0.04723      1.32819      1.69846         0.018630     -0.013554     -0.003880
      0.08239      1.32819      4.64471        -0.004490     -0.006674      0.004300
      0.08239      4.28173      4.64471        -0.018660      0.008101      0.005937
     -0.04723      4.28173      1.69846         0.002921      0.002096     -0.003149
      1.97975      2.80495      3.28385        -0.038797      0.002803      0.034290
     -1.77125      2.80495      0.15940         0.051720      0.024285     -0.053198
 -----------------------------------------------------------------------------------
    total drift:                               -0.026042      0.058077     -0.006762


--------------------------------------------------------------------------------------------------------



  FREE ENERGIE OF THE ION-ELECTRON SYSTEM (eV)
  ---------------------------------------------------
  free  energy   TOTEN  =       -81.07274168 eV

  energy  without entropy=      -81.07274168  energy(sigma->0) =      -81.07274168
 


--------------------------------------------------------------------------------------------------------


    POTLOK:  cpu time    0.07: real time    0.07


--------------------------------------------------------------------------------------------------------


     LOOP+:  cpu time 1103.75: real time 1110.57
    4ORBIT:  cpu time    0.00: real time    0.00
 


 total charge     
 
# of ion     s       p       d       tot
----------------------------------------
  1        0.410   0.707   4.201   5.318
  2        0.642   1.037   4.677   6.357
  3        0.642   1.037   4.677   6.357
  4        0.624   0.633  10.076  11.333
  5        1.591   3.399   0.000   4.990
  6        1.588   3.392   0.000   4.980
  7        1.570   3.471   0.000   5.041
  8        1.570   3.474   0.000   5.044
  9        1.570   3.471   0.000   5.041
 10        1.570   3.474   0.000   5.044
 11        1.591   3.399   0.000   4.990
 12        1.588   3.392   0.000   4.980
------------------------------------------------
tot       14.956  30.886  23.632  69.474
 


 magnetization (x)
 
# of ion     s       p       d       tot
----------------------------------------
  1        0.024   0.036   2.931   2.991
  2        0.013   0.003   1.259   1.275
  3        0.013   0.003   1.259   1.275
  4        0.023   0.008  -0.001   0.029
  5       -0.002  -0.150   0.000  -0.152
  6       -0.001  -0.080   0.000  -0.081
  7       -0.001  -0.033   0.000  -0.035
  8       -0.001  -0.033   0.000  -0.034
  9       -0.001  -0.033   0.000  -0.035
 10       -0.001  -0.033   0.000  -0.034
 11       -0.002  -0.150   0.000  -0.152
 12       -0.001  -0.080   0.000  -0.081
------------------------------------------------
tot        0.060  -0.542   5.448   4.966
 
 BZINTS: Fermi energy:  3.656994; 79.000000 electrons
         Band energy:-343.964896;  BLOECHL correction:  0.000000

 total amount of memory used by VASP on root node   287674. kBytes
========================================================================

   base      :      30000. kBytes
   nonl-proj :      81299. kBytes
   fftplans  :        592. kBytes
   grid      :       1479. kBytes
   one-center:         93. kBytes
   wavefun   :     174211. kBytes
 
  
  
 General timing and accounting informations for this job:
 ========================================================
  
                  Total CPU time used (sec):     1138.659
                            User time (sec):     1071.940
                          System time (sec):       66.719
                         Elapsed time (sec):     1146.832
  
                   Maximum memory used (kb):      626420.
                   Average memory used (kb):           0.
  
                          Minor page faults:       243118
                          Major page faults:            3
                 Voluntary context switches:         3267
