  12  12   1   0
  0.1300482E+02  0.5088557E-09  0.5088557E-09  0.6532300E-09  0.5000000E-15
  1.000000000000000E-004
  CAR 
 unknown system                          
     13.92086308    -18.51899135  301      2.86785781      1.00000000
    -18.519  0.0000E+00  0.0000E+00  0.0000E+00  0.0000E+00
    -18.411  0.0000E+00  0.0000E+00  0.0000E+00  0.0000E+00
    -18.303  0.0000E+00  0.0000E+00  0.0000E+00  0.0000E+00
    -18.195  0.0000E+00  0.0000E+00  0.0000E+00  0.0000E+00
    -18.086  0.0000E+00  0.0000E+00  0.0000E+00  0.0000E+00
    -17.978  0.0000E+00  0.0000E+00  0.0000E+00  0.0000E+00
    -17.870  0.0000E+00  0.0000E+00  0.0000E+00  0.0000E+00
    -17.762  0.0000E+00  0.0000E+00  0.0000E+00  0.0000E+00
    -17.654  0.0000E+00  0.3562E-16  0.0000E+00  0.3852E-17
    -17.546  0.3772E-16  0.1471E-13  0.4078E-17  0.1595E-14
    -17.438  0.1609E-13  0.3624E-11  0.1744E-14  0.3935E-12
    -17.330  0.3921E-11  0.5138E-09  0.4258E-12  0.5595E-10
    -17.221  0.5510E-09  0.4218E-07  0.6001E-10  0.4617E-08
    -17.113  0.4484E-07  0.2018E-05  0.4909E-08  0.2228E-06
    -17.005  0.2128E-05  0.5675E-04  0.2350E-06  0.6359E-05
    -16.897  0.5937E-04  0.9498E-03  0.6655E-05  0.1091E-03
    -16.789  0.9868E-03  0.9634E-02  0.1134E-03  0.1151E-02
    -16.681  0.9952E-02  0.6082E-01  0.1190E-02  0.7727E-02
    -16.573  0.6260E-01  0.2482E+00  0.7959E-02  0.3456E-01
    -16.464  0.2554E+00  0.6892E+00  0.3558E-01  0.1091E+00
    -16.356  0.7114E+00  0.1385E+01  0.1125E+00  0.2589E+00
    -16.248  0.1432E+01  0.2148E+01  0.2673E+00  0.4911E+00
    -16.140  0.2196E+01  0.2767E+01  0.5048E+00  0.7904E+00
    -16.032  0.2758E+01  0.3346E+01  0.8031E+00  0.1152E+01
    -15.924  0.3267E+01  0.4222E+01  0.1156E+01  0.1609E+01
    -15.816  0.4179E+01  0.5467E+01  0.1608E+01  0.2200E+01
    -15.708  0.5571E+01  0.7054E+01  0.2211E+01  0.2963E+01
    -15.599  0.7171E+01  0.8948E+01  0.2986E+01  0.3930E+01
    -15.491  0.8726E+01  0.1045E+02  0.3930E+01  0.5060E+01
    -15.383  0.9837E+01  0.1042E+02  0.4993E+01  0.6186E+01
    -15.275  0.9957E+01  0.8372E+01  0.6070E+01  0.7092E+01
    -15.167  0.8502E+01  0.5162E+01  0.6989E+01  0.7650E+01
    -15.059  0.5616E+01  0.2329E+01  0.7597E+01  0.7902E+01
    -14.951  0.2662E+01  0.7335E+00  0.7884E+01  0.7981E+01
    -14.842  0.8593E+00  0.1540E+00  0.7977E+01  0.7998E+01
    -14.734  0.1823E+00  0.2069E-01  0.7997E+01  0.8000E+01
    -14.626  0.2470E-01  0.1723E-02  0.8000E+01  0.8000E+01
    -14.518  0.2085E-02  0.8682E-04  0.8000E+01  0.8000E+01
    -14.410  0.1073E-03  0.2599E-05  0.8000E+01  0.8000E+01
    -14.302  0.3304E-05  0.4561E-07  0.8000E+01  0.8000E+01
    -14.194  0.5999E-07  0.4648E-09  0.8000E+01  0.8000E+01
    -14.086  0.6347E-09  0.2730E-11  0.8000E+01  0.8000E+01
    -13.977  0.3881E-11  0.9132E-14  0.8000E+01  0.8000E+01
    -13.869  0.1353E-13  0.4191E-17  0.8000E+01  0.8000E+01
    -13.761  0.4191E-17  0.0000E+00  0.8000E+01  0.8000E+01
    -13.653  0.0000E+00  0.0000E+00  0.8000E+01  0.8000E+01
    -13.545  0.0000E+00  0.0000E+00  0.8000E+01  0.8000E+01
    -13.437  0.0000E+00  0.0000E+00  0.8000E+01  0.8000E+01
    -13.329  0.0000E+00  0.0000E+00  0.8000E+01  0.8000E+01
    -13.220  0.0000E+00  0.0000E+00  0.8000E+01  0.8000E+01
    -13.112  0.0000E+00  0.0000E+00  0.8000E+01  0.8000E+01
    -13.004  0.0000E+00  0.0000E+00  0.8000E+01  0.8000E+01
    -12.896  0.0000E+00  0.0000E+00  0.8000E+01  0.8000E+01
    -12.788  0.0000E+00  0.0000E+00  0.8000E+01  0.8000E+01
    -12.680  0.0000E+00  0.0000E+00  0.8000E+01  0.8000E+01
    -12.572  0.0000E+00  0.0000E+00  0.8000E+01  0.8000E+01
    -12.464  0.6274E-13  0.2415E-13  0.8000E+01  0.8000E+01
    -12.355  0.1945E-10  0.8215E-11  0.8000E+01  0.8000E+01
    -12.247  0.3418E-08  0.1572E-08  0.8000E+01  0.8000E+01
    -12.139  0.3415E-06  0.1709E-06  0.8000E+01  0.8000E+01
    -12.031  0.1945E-04  0.1060E-04  0.8000E+01  0.8000E+01
    -11.923  0.6346E-03  0.3765E-03  0.8000E+01  0.8000E+01
    -11.815  0.1192E-01  0.7701E-02  0.8001E+01  0.8001E+01
    -11.707  0.1297E+00  0.9134E-01  0.8015E+01  0.8011E+01
    -11.598  0.8252E+00  0.6337E+00  0.8105E+01  0.8079E+01
    -11.490  0.3116E+01  0.2608E+01  0.8442E+01  0.8361E+01
    -11.382  0.7167E+01  0.6523E+01  0.9217E+01  0.9067E+01
    -11.274  0.1053E+02  0.1033E+02  0.1036E+02  0.1018E+02
    -11.166  0.1061E+02  0.1102E+02  0.1150E+02  0.1138E+02
    -11.058  0.7796E+01  0.8370E+01  0.1235E+02  0.1228E+02
    -10.950  0.4154E+01  0.4538E+01  0.1279E+02  0.1277E+02
    -10.842  0.1503E+01  0.1666E+01  0.1296E+02  0.1295E+02
    -10.733  0.3444E+00  0.3885E+00  0.1299E+02  0.1299E+02
    -10.625  0.4777E-01  0.5501E-01  0.1300E+02  0.1300E+02
    -10.517  0.3908E-02  0.4604E-02  0.1300E+02  0.1300E+02
    -10.409  0.1857E-03  0.2242E-03  0.1300E+02  0.1300E+02
    -10.301  0.5073E-05  0.6285E-05  0.1300E+02  0.1300E+02
    -10.193  0.7917E-07  0.1007E-06  0.1300E+02  0.1300E+02
    -10.085  0.7022E-09  0.9182E-09  0.1300E+02  0.1300E+02
     -9.976  0.3526E-11  0.4742E-11  0.1300E+02  0.1300E+02
     -9.868  0.9957E-14  0.1370E-13  0.1300E+02  0.1300E+02
     -9.760  0.0000E+00  0.0000E+00  0.1300E+02  0.1300E+02
     -9.652  0.0000E+00  0.0000E+00  0.1300E+02  0.1300E+02
     -9.544  0.0000E+00  0.0000E+00  0.1300E+02  0.1300E+02
     -9.436  0.0000E+00  0.0000E+00  0.1300E+02  0.1300E+02
     -9.328  0.0000E+00  0.0000E+00  0.1300E+02  0.1300E+02
     -9.220  0.0000E+00  0.0000E+00  0.1300E+02  0.1300E+02
     -9.111  0.0000E+00  0.0000E+00  0.1300E+02  0.1300E+02
     -9.003  0.0000E+00  0.0000E+00  0.1300E+02  0.1300E+02
     -8.895  0.0000E+00  0.0000E+00  0.1300E+02  0.1300E+02
     -8.787  0.0000E+00  0.0000E+00  0.1300E+02  0.1300E+02
     -8.679  0.0000E+00  0.0000E+00  0.1300E+02  0.1300E+02
     -8.571  0.0000E+00  0.0000E+00  0.1300E+02  0.1300E+02
     -8.463  0.0000E+00  0.0000E+00  0.1300E+02  0.1300E+02
     -8.355  0.0000E+00  0.0000E+00  0.1300E+02  0.1300E+02
     -8.246  0.0000E+00  0.0000E+00  0.1300E+02  0.1300E+02
     -8.138  0.0000E+00  0.0000E+00  0.1300E+02  0.1300E+02
     -8.030  0.0000E+00  0.0000E+00  0.1300E+02  0.1300E+02
     -7.922  0.0000E+00  0.0000E+00  0.1300E+02  0.1300E+02
     -7.814  0.0000E+00  0.0000E+00  0.1300E+02  0.1300E+02
     -7.706  0.0000E+00  0.0000E+00  0.1300E+02  0.1300E+02
     -7.598  0.0000E+00  0.0000E+00  0.1300E+02  0.1300E+02
     -7.489  0.0000E+00  0.0000E+00  0.1300E+02  0.1300E+02
     -7.381  0.0000E+00  0.0000E+00  0.1300E+02  0.1300E+02
     -7.273  0.0000E+00  0.0000E+00  0.1300E+02  0.1300E+02
     -7.165  0.0000E+00  0.0000E+00  0.1300E+02  0.1300E+02
     -7.057  0.0000E+00  0.0000E+00  0.1300E+02  0.1300E+02
     -6.949  0.0000E+00  0.0000E+00  0.1300E+02  0.1300E+02
     -6.841  0.0000E+00  0.0000E+00  0.1300E+02  0.1300E+02
     -6.733  0.0000E+00  0.0000E+00  0.1300E+02  0.1300E+02
     -6.624  0.0000E+00  0.0000E+00  0.1300E+02  0.1300E+02
     -6.516  0.0000E+00  0.0000E+00  0.1300E+02  0.1300E+02
     -6.408  0.0000E+00  0.0000E+00  0.1300E+02  0.1300E+02
     -6.300  0.0000E+00  0.0000E+00  0.1300E+02  0.1300E+02
     -6.192  0.0000E+00  0.0000E+00  0.1300E+02  0.1300E+02
     -6.084  0.0000E+00  0.0000E+00  0.1300E+02  0.1300E+02
     -5.976  0.0000E+00  0.0000E+00  0.1300E+02  0.1300E+02
     -5.867  0.0000E+00  0.0000E+00  0.1300E+02  0.1300E+02
     -5.759  0.0000E+00  0.0000E+00  0.1300E+02  0.1300E+02
     -5.651  0.8800E-16  0.0000E+00  0.1300E+02  0.1300E+02
     -5.543  0.3988E-13  0.0000E+00  0.1300E+02  0.1300E+02
     -5.435  0.9938E-11  0.0000E+00  0.1300E+02  0.1300E+02
     -5.327  0.1415E-08  0.2305E-15  0.1300E+02  0.1300E+02
     -5.219  0.1156E-06  0.9358E-13  0.1300E+02  0.1300E+02
     -5.111  0.5456E-05  0.2023E-10  0.1300E+02  0.1300E+02
     -5.002  0.1501E-03  0.2524E-08  0.1300E+02  0.1300E+02
     -4.894  0.2430E-02  0.1831E-06  0.1300E+02  0.1300E+02
     -4.786  0.2344E-01  0.7791E-05  0.1300E+02  0.1300E+02
     -4.678  0.1368E+00  0.1967E-03  0.1302E+02  0.1300E+02
     -4.570  0.4937E+00  0.2987E-02  0.1307E+02  0.1300E+02
     -4.462  0.1137E+01  0.2770E-01  0.1319E+02  0.1300E+02
     -4.354  0.1756E+01  0.1597E+00  0.1338E+02  0.1302E+02
     -4.245  0.1943E+01  0.5827E+00  0.1359E+02  0.1308E+02
     -4.137  0.1646E+01  0.1371E+01  0.1377E+02  0.1323E+02
     -4.029  0.1167E+01  0.2119E+01  0.1390E+02  0.1346E+02
     -3.921  0.9330E+00  0.2200E+01  0.1400E+02  0.1370E+02
     -3.813  0.1253E+01  0.1578E+01  0.1413E+02  0.1387E+02
     -3.705  0.2100E+01  0.8224E+00  0.1436E+02  0.1396E+02
     -3.597  0.3144E+01  0.4105E+00  0.1470E+02  0.1400E+02
     -3.489  0.4132E+01  0.5621E+00  0.1515E+02  0.1406E+02
     -3.380  0.5070E+01  0.1335E+01  0.1570E+02  0.1421E+02
     -3.272  0.5971E+01  0.2331E+01  0.1634E+02  0.1446E+02
     -3.164  0.6639E+01  0.2870E+01  0.1706E+02  0.1477E+02
     -3.056  0.6838E+01  0.3013E+01  0.1780E+02  0.1510E+02
     -2.948  0.6521E+01  0.3333E+01  0.1850E+02  0.1546E+02
     -2.840  0.6005E+01  0.3780E+01  0.1915E+02  0.1587E+02
     -2.732  0.5782E+01  0.4350E+01  0.1978E+02  0.1634E+02
     -2.623  0.5724E+01  0.5454E+01  0.2040E+02  0.1693E+02
     -2.515  0.5320E+01  0.6610E+01  0.2097E+02  0.1764E+02
     -2.407  0.4781E+01  0.6994E+01  0.2149E+02  0.1840E+02
     -2.299  0.4662E+01  0.6898E+01  0.2199E+02  0.1914E+02
     -2.191  0.4854E+01  0.6972E+01  0.2252E+02  0.1990E+02
     -2.083  0.5140E+01  0.6962E+01  0.2308E+02  0.2065E+02
     -1.975  0.5723E+01  0.6327E+01  0.2369E+02  0.2133E+02
     -1.867  0.6434E+01  0.5306E+01  0.2439E+02  0.2191E+02
     -1.758  0.6575E+01  0.4587E+01  0.2510E+02  0.2240E+02
     -1.650  0.6012E+01  0.4490E+01  0.2575E+02  0.2289E+02
     -1.542  0.5319E+01  0.4927E+01  0.2633E+02  0.2342E+02
     -1.434  0.4773E+01  0.5722E+01  0.2684E+02  0.2404E+02
     -1.326  0.4211E+01  0.6514E+01  0.2730E+02  0.2474E+02
     -1.218  0.3575E+01  0.6805E+01  0.2768E+02  0.2548E+02
     -1.110  0.3064E+01  0.6505E+01  0.2802E+02  0.2618E+02
     -1.001  0.2898E+01  0.5950E+01  0.2833E+02  0.2683E+02
     -0.893  0.3049E+01  0.5286E+01  0.2866E+02  0.2740E+02
     -0.785  0.3404E+01  0.4626E+01  0.2903E+02  0.2790E+02
     -0.677  0.4037E+01  0.4254E+01  0.2946E+02  0.2836E+02
     -0.569  0.5010E+01  0.4270E+01  0.3000E+02  0.2882E+02
     -0.461  0.5950E+01  0.4545E+01  0.3065E+02  0.2931E+02
     -0.353  0.6327E+01  0.4966E+01  0.3133E+02  0.2985E+02
     -0.245  0.6166E+01  0.5494E+01  0.3200E+02  0.3044E+02
     -0.136  0.5880E+01  0.6160E+01  0.3263E+02  0.3111E+02
     -0.028  0.5590E+01  0.6848E+01  0.3324E+02  0.3185E+02
      0.080  0.5275E+01  0.7170E+01  0.3381E+02  0.3263E+02
      0.188  0.5078E+01  0.6933E+01  0.3436E+02  0.3337E+02
      0.296  0.5034E+01  0.6529E+01  0.3490E+02  0.3408E+02
      0.404  0.5008E+01  0.6335E+01  0.3544E+02  0.3477E+02
      0.512  0.4876E+01  0.5936E+01  0.3597E+02  0.3541E+02
      0.621  0.4668E+01  0.4955E+01  0.3648E+02  0.3594E+02
      0.729  0.4633E+01  0.3766E+01  0.3698E+02  0.3635E+02
      0.837  0.4907E+01  0.2732E+01  0.3751E+02  0.3665E+02
      0.945  0.5057E+01  0.1815E+01  0.3806E+02  0.3684E+02
      1.053  0.4562E+01  0.9731E+00  0.3855E+02  0.3695E+02
      1.161  0.3757E+01  0.3729E+00  0.3895E+02  0.3699E+02
      1.269  0.3261E+01  0.9475E-01  0.3931E+02  0.3700E+02
      1.377  0.2868E+01  0.1537E-01  0.3962E+02  0.3700E+02
      1.486  0.2066E+01  0.1557E-02  0.3984E+02  0.3700E+02
      1.594  0.1047E+01  0.9690E-04  0.3995E+02  0.3700E+02
      1.702  0.3605E+00  0.3648E-05  0.3999E+02  0.3700E+02
      1.810  0.1393E+00  0.8182E-07  0.4001E+02  0.3700E+02
      1.918  0.2139E+00  0.1079E-08  0.4003E+02  0.3700E+02
      2.026  0.4567E+00  0.8258E-11  0.4008E+02  0.3700E+02
      2.134  0.8123E+00  0.3638E-13  0.4017E+02  0.3700E+02
      2.243  0.1262E+01  0.8381E-16  0.4031E+02  0.3700E+02
      2.351  0.1792E+01  0.0000E+00  0.4050E+02  0.3700E+02
      2.459  0.2297E+01  0.0000E+00  0.4075E+02  0.3700E+02
      2.567  0.2649E+01  0.0000E+00  0.4103E+02  0.3700E+02
      2.675  0.2888E+01  0.0000E+00  0.4135E+02  0.3700E+02
      2.783  0.3195E+01  0.0000E+00  0.4169E+02  0.3700E+02
      2.891  0.3720E+01  0.0000E+00  0.4209E+02  0.3700E+02
      2.999  0.4452E+01  0.4191E-17  0.4257E+02  0.3700E+02
      3.108  0.4895E+01  0.2343E-14  0.4310E+02  0.3700E+02
      3.216  0.4259E+01  0.6056E-12  0.4356E+02  0.3700E+02
      3.324  0.2625E+01  0.9024E-10  0.4385E+02  0.3700E+02
      3.432  0.1072E+01  0.7902E-08  0.4396E+02  0.3700E+02
      3.540  0.2860E+00  0.4146E-06  0.4400E+02  0.3700E+02
      3.648  0.1078E+00  0.1335E-04  0.4401E+02  0.3700E+02
      3.756  0.3281E+00  0.2709E-03  0.4404E+02  0.3700E+02
      3.865  0.1068E+01  0.3533E-02  0.4416E+02  0.3700E+02
      3.973  0.2388E+01  0.2996E-01  0.4442E+02  0.3700E+02
      4.081  0.3871E+01  0.1655E+00  0.4483E+02  0.3702E+02
      4.189  0.4796E+01  0.5942E+00  0.4535E+02  0.3709E+02
      4.297  0.4791E+01  0.1395E+01  0.4587E+02  0.3724E+02
      4.405  0.4298E+01  0.2201E+01  0.4634E+02  0.3747E+02
      4.513  0.3957E+01  0.2537E+01  0.4676E+02  0.3775E+02
      4.621  0.3942E+01  0.2667E+01  0.4719E+02  0.3804E+02
      4.730  0.4378E+01  0.3361E+01  0.4766E+02  0.3840E+02
      4.838  0.5254E+01  0.4701E+01  0.4823E+02  0.3891E+02
      4.946  0.5797E+01  0.5922E+01  0.4886E+02  0.3955E+02
      5.054  0.5122E+01  0.6536E+01  0.4941E+02  0.4026E+02
      5.162  0.3396E+01  0.6857E+01  0.4978E+02  0.4100E+02
      5.270  0.1708E+01  0.7378E+01  0.4996E+02  0.4180E+02
      5.378  0.9237E+00  0.8115E+01  0.5006E+02  0.4267E+02
      5.487  0.1099E+01  0.8712E+01  0.5018E+02  0.4362E+02
      5.595  0.1801E+01  0.8936E+01  0.5038E+02  0.4458E+02
      5.703  0.2436E+01  0.8498E+01  0.5064E+02  0.4550E+02
      5.811  0.2565E+01  0.7028E+01  0.5092E+02  0.4626E+02
      5.919  0.2261E+01  0.4852E+01  0.5116E+02  0.4678E+02
      6.027  0.1934E+01  0.2956E+01  0.5137E+02  0.4710E+02
      6.135  0.1818E+01  0.1914E+01  0.5157E+02  0.4731E+02
      6.243  0.1750E+01  0.1458E+01  0.5176E+02  0.4747E+02
      6.352  0.1483E+01  0.1170E+01  0.5192E+02  0.4760E+02
      6.460  0.1109E+01  0.1085E+01  0.5204E+02  0.4771E+02
      6.568  0.9166E+00  0.1404E+01  0.5214E+02  0.4786E+02
      6.676  0.1009E+01  0.2235E+01  0.5225E+02  0.4811E+02
      6.784  0.1297E+01  0.3600E+01  0.5239E+02  0.4850E+02
      6.892  0.1595E+01  0.4999E+01  0.5256E+02  0.4904E+02
      7.000  0.1632E+01  0.5510E+01  0.5274E+02  0.4963E+02
      7.108  0.1282E+01  0.4881E+01  0.5287E+02  0.5016E+02
      7.217  0.7433E+00  0.3782E+01  0.5296E+02  0.5057E+02
      7.325  0.3089E+00  0.2957E+01  0.5299E+02  0.5089E+02
      7.433  0.8840E-01  0.2683E+01  0.5300E+02  0.5118E+02
      7.541  0.1662E-01  0.2705E+01  0.5300E+02  0.5147E+02
      7.649  0.1974E-02  0.2488E+01  0.5300E+02  0.5174E+02
      7.757  0.2518E-03  0.1967E+01  0.5300E+02  0.5195E+02
      7.865  0.1207E-02  0.1738E+01  0.5300E+02  0.5214E+02
      7.974  0.7839E-02  0.2107E+01  0.5300E+02  0.5237E+02
      8.082  0.3194E-01  0.2424E+01  0.5300E+02  0.5263E+02
      8.190  0.8776E-01  0.1987E+01  0.5301E+02  0.5285E+02
      8.298  0.1825E+00  0.1106E+01  0.5303E+02  0.5297E+02
      8.406  0.3177E+00  0.4931E+00  0.5307E+02  0.5302E+02
      8.514  0.4700E+00  0.3330E+00  0.5312E+02  0.5305E+02
      8.622  0.5830E+00  0.4221E+00  0.5318E+02  0.5310E+02
      8.730  0.6445E+00  0.5515E+00  0.5325E+02  0.5316E+02
      8.839  0.7247E+00  0.6306E+00  0.5333E+02  0.5323E+02
      8.947  0.8811E+00  0.6847E+00  0.5343E+02  0.5330E+02
      9.055  0.1023E+01  0.7914E+00  0.5354E+02  0.5339E+02
      9.163  0.9980E+00  0.9549E+00  0.5364E+02  0.5349E+02
      9.271  0.8522E+00  0.1029E+01  0.5374E+02  0.5360E+02
      9.379  0.7587E+00  0.9393E+00  0.5382E+02  0.5370E+02
      9.487  0.7767E+00  0.8213E+00  0.5390E+02  0.5379E+02
      9.596  0.8322E+00  0.8080E+00  0.5399E+02  0.5388E+02
      9.704  0.8192E+00  0.8762E+00  0.5408E+02  0.5397E+02
      9.812  0.7274E+00  0.9057E+00  0.5416E+02  0.5407E+02
      9.920  0.7059E+00  0.8280E+00  0.5424E+02  0.5416E+02
     10.028  0.8466E+00  0.7691E+00  0.5433E+02  0.5425E+02
     10.136  0.9907E+00  0.8569E+00  0.5443E+02  0.5434E+02
     10.244  0.9917E+00  0.9831E+00  0.5454E+02  0.5444E+02
     10.352  0.9405E+00  0.1013E+01  0.5464E+02  0.5455E+02
     10.461  0.9615E+00  0.9760E+00  0.5475E+02  0.5466E+02
     10.569  0.1071E+01  0.9662E+00  0.5486E+02  0.5476E+02
     10.677  0.1175E+01  0.1030E+01  0.5499E+02  0.5488E+02
     10.785  0.1152E+01  0.1099E+01  0.5511E+02  0.5499E+02
     10.893  0.1068E+01  0.1094E+01  0.5523E+02  0.5511E+02
     11.001  0.1054E+01  0.1060E+01  0.5534E+02  0.5523E+02
     11.109  0.1094E+01  0.1068E+01  0.5546E+02  0.5534E+02
     11.218  0.1097E+01  0.1124E+01  0.5558E+02  0.5546E+02
     11.326  0.1027E+01  0.1172E+01  0.5569E+02  0.5559E+02
     11.434  0.9045E+00  0.1099E+01  0.5579E+02  0.5571E+02
     11.542  0.7427E+00  0.8898E+00  0.5587E+02  0.5581E+02
     11.650  0.5415E+00  0.6536E+00  0.5593E+02  0.5588E+02
     11.758  0.3319E+00  0.4771E+00  0.5596E+02  0.5593E+02
     11.866  0.1753E+00  0.3417E+00  0.5598E+02  0.5597E+02
     11.974  0.8962E-01  0.2053E+00  0.5599E+02  0.5599E+02
     12.083  0.4353E-01  0.8801E-01  0.5600E+02  0.5600E+02
     12.191  0.1608E-01  0.2443E-01  0.5600E+02  0.5600E+02
     12.299  0.3788E-02  0.4185E-02  0.5600E+02  0.5600E+02
     12.407  0.5282E-03  0.4315E-03  0.5600E+02  0.5600E+02
     12.515  0.4246E-04  0.2635E-04  0.5600E+02  0.5600E+02
     12.623  0.1947E-05  0.9421E-06  0.5600E+02  0.5600E+02
     12.731  0.5066E-07  0.1953E-07  0.5600E+02  0.5600E+02
     12.840  0.7459E-09  0.2328E-09  0.5600E+02  0.5600E+02
     12.948  0.6199E-11  0.1586E-11  0.5600E+02  0.5600E+02
     13.056  0.2903E-13  0.6135E-14  0.5600E+02  0.5600E+02
     13.164  0.6705E-16  0.1676E-16  0.5600E+02  0.5600E+02
     13.272  0.0000E+00  0.0000E+00  0.5600E+02  0.5600E+02
     13.380  0.0000E+00  0.0000E+00  0.5600E+02  0.5600E+02
     13.488  0.0000E+00  0.0000E+00  0.5600E+02  0.5600E+02
     13.596  0.0000E+00  0.0000E+00  0.5600E+02  0.5600E+02
     13.705  0.0000E+00  0.0000E+00  0.5600E+02  0.5600E+02
     13.813  0.0000E+00  0.0000E+00  0.5600E+02  0.5600E+02
     13.921  0.0000E+00  0.0000E+00  0.5600E+02  0.5600E+02
     13.92086308    -18.51899135  301      2.86785781      1.00000000
    -18.519  0.0000E+00  0.0000E+00  0.0000E+00  0.0000E+00  0.0000E+00  0.0000E+00  0.0000E+00  0.0000E+00  0.0000E+00  0.0000E+00  0.0000E+00  0.0000E+00  0.0000E+00  0.0000E+00  0.0000E+00  0.0000E+00  0.0000E+00  0.0000E+00
    -18.411  0.0000E+00  0.0000E+00  0.0000E+00  0.0000E+00  0.0000E+00  0.0000E+00  0.0000E+00  0.0000E+00  0.0000E+00  0.0000E+00  0.0000E+00  0.0000E+00  0.0000E+00  0.0000E+00  0.0000E+00  0.0000E+00  0.0000E+00  0.0000E+00
    -18.303  0.0000E+00  0.0000E+00  0.0000E+00  0.0000E+00  0.0000E+00  0.0000E+00  0.0000E+00  0.0000E+00  0.0000E+00  0.0000E+00  0.0000E+00  0.0000E+00  0.0000E+00  0.0000E+00  0.0000E+00  0.0000E+00  0.0000E+00  0.0000E+00
    -18.195  0.0000E+00  0.0000E+00  0.0000E+00  0.0000E+00  0.0000E+00  0.0000E+00  0.0000E+00  0.0000E+00  0.0000E+00  0.0000E+00  0.0000E+00  0.0000E+00  0.0000E+00  0.0000E+00  0.0000E+00  0.0000E+00  0.0000E+00  0.0000E+00
    -18.086  0.0000E+00  0.0000E+00  0.0000E+00  0.0000E+00  0.0000E+00  0.0000E+00  0.0000E+00  0.0000E+00  0.0000E+00  0.0000E+00  0.0000E+00  0.0000E+00  0.0000E+00  0.0000E+00  0.0000E+00  0.0000E+00  0.0000E+00  0.0000E+00
    -17.978  0.0000E+00  0.0000E+00  0.0000E+00  0.0000E+00  0.0000E+00  0.0000E+00  0.0000E+00  0.0000E+00  0.0000E+00  0.0000E+00  0.0000E+00  0.0000E+00  0.0000E+00  0.0000E+00  0.0000E+00  0.0000E+00  0.0000E+00  0.0000E+00
    -17.870  0.0000E+00  0.0000E+00  0.0000E+00  0.0000E+00  0.0000E+00  0.0000E+00  0.0000E+00  0.0000E+00  0.0000E+00  0.0000E+00  0.0000E+00  0.0000E+00  0.0000E+00  0.0000E+00  0.0000E+00  0.0000E+00  0.0000E+00  0.0000E+00
    -17.762  0.0000E+00  0.0000E+00  0.0000E+00  0.0000E+00  0.0000E+00  0.0000E+00  0.0000E+00  0.0000E+00  0.0000E+00  0.0000E+00  0.0000E+00  0.0000E+00  0.0000E+00  0.0000E+00  0.0000E+00  0.0000E+00  0.0000E+00  0.0000E+00
    -17.654  0.0000E+00  0.1229E-17  0.0000E+00  0.1508E-20  0.0000E+00  0.2313E-20  0.0000E+00  0.3219E-20  0.0000E+00  0.3042E-23  0.0000E+00  0.3628E-22  0.0000E+00  0.4102E-20  0.0000E+00  0.1328E-21  0.0000E+00  0.4386E-20
    -17.546  0.1386E-17  0.5072E-15  0.1481E-20  0.7763E-18  0.2540E-20  0.1535E-17  0.2845E-20  0.1363E-17  0.3377E-23  0.1892E-20  0.3752E-22  0.2372E-19  0.1178E-19  0.1639E-17  0.2683E-22  0.5880E-19  0.2547E-20  0.1879E-17
    -17.438  0.5902E-15  0.1248E-12  0.8459E-18  0.2198E-15  0.1752E-17  0.4491E-15  0.1380E-17  0.3961E-15  0.2346E-20  0.5626E-18  0.2794E-19  0.7203E-17  0.4964E-17  0.4060E-15  0.1259E-19  0.1463E-16  0.1118E-17  0.4629E-15
    -17.330  0.1437E-12  0.1767E-10  0.2363E-15  0.3566E-13  0.5083E-15  0.7459E-13  0.3901E-15  0.6512E-13  0.6804E-18  0.9601E-16  0.8223E-17  0.1257E-14  0.1214E-14  0.5782E-13  0.3503E-17  0.2106E-14  0.2724E-15  0.6571E-13
    -17.221  0.2016E-10  0.1448E-08  0.3792E-13  0.3344E-11  0.8429E-13  0.7123E-11  0.6337E-13  0.6179E-11  0.1150E-15  0.9597E-14  0.1427E-14  0.1295E-12  0.1712E-12  0.4775E-11  0.5790E-15  0.1779E-12  0.3834E-13  0.5415E-11
    -17.113  0.1639E-08  0.6918E-07  0.3521E-11  0.1833E-09  0.8035E-11  0.3937E-09  0.5944E-11  0.3419E-09  0.1138E-13  0.5710E-12  0.1462E-12  0.7995E-11  0.1400E-10  0.2303E-09  0.5735E-13  0.8946E-11  0.3137E-11  0.2610E-09
    -17.005  0.7765E-07  0.1942E-05  0.1912E-09  0.5963E-08  0.4432E-09  0.1272E-07  0.3254E-09  0.1119E-07  0.6707E-12  0.2063E-10  0.8988E-11  0.3017E-09  0.6685E-09  0.6563E-08  0.3465E-11  0.2731E-09  0.1507E-09  0.7441E-08
    -16.897  0.2164E-05  0.3246E-04  0.6160E-08  0.1172E-06  0.1429E-07  0.2438E-06  0.1054E-07  0.2206E-06  0.2399E-10  0.4646E-09  0.3378E-09  0.7121E-08  0.1884E-07  0.1124E-06  0.1301E-09  0.5202E-08  0.4308E-08  0.1275E-06
    -16.789  0.3591E-04  0.3287E-03  0.1200E-06  0.1426E-05  0.2734E-06  0.2826E-05  0.2054E-06  0.2677E-05  0.5343E-09  0.6734E-08  0.7936E-08  0.1081E-06  0.3186E-06  0.1189E-05  0.3102E-08  0.6412E-07  0.7485E-07  0.1347E-05
    -16.681  0.3616E-03  0.2071E-02  0.1446E-05  0.1102E-04  0.3167E-05  0.2045E-04  0.2464E-05  0.2053E-04  0.7650E-08  0.6514E-07  0.1198E-06  0.1090E-05  0.3313E-05  0.8103E-05  0.4799E-07  0.5342E-06  0.8171E-06  0.9083E-05
    -16.573  0.2271E-02  0.8423E-02  0.1107E-04  0.5570E-04  0.2293E-04  0.9742E-04  0.1864E-04  0.1022E-03  0.7294E-07  0.4357E-06  0.1198E-05  0.7566E-05  0.2203E-04  0.3787E-04  0.4928E-06  0.3142E-05  0.5871E-05  0.4110E-04
    -16.464  0.9244E-02  0.2324E-01  0.5539E-04  0.1901E-03  0.1094E-03  0.3398E-03  0.9134E-04  0.3404E-03  0.4779E-06  0.2073E-05  0.8190E-05  0.3753E-04  0.9897E-04  0.1297E-03  0.3419E-05  0.1343E-04  0.2933E-04  0.1325E-03
    -16.356  0.2562E-01  0.4583E-01  0.1868E-03  0.4550E-03  0.3795E-03  0.1034E-02  0.2978E-03  0.7824E-03  0.2205E-05  0.7319E-05  0.3971E-04  0.1426E-03  0.3186E-03  0.3368E-03  0.1613E-04  0.4219E-04  0.1066E-03  0.3244E-03
    -16.248  0.5073E-01  0.6700E-01  0.4398E-03  0.8391E-03  0.1129E-02  0.3071E-02  0.6642E-03  0.1316E-02  0.7479E-05  0.2159E-04  0.1484E-03  0.4830E-03  0.7598E-03  0.6601E-03  0.5188E-04  0.1002E-03  0.2884E-03  0.6480E-03
    -16.140  0.7379E-01  0.7273E-01  0.7953E-03  0.1567E-02  0.3263E-02  0.8186E-02  0.1069E-02  0.1915E-02  0.2141E-04  0.6294E-04  0.5170E-03  0.1647E-02  0.1333E-02  0.9982E-03  0.1169E-03  0.1989E-03  0.6002E-03  0.1190E-02
    -16.032  0.7851E-01  0.5755E-01  0.1493E-02  0.3728E-02  0.8608E-02  0.1714E-01  0.1465E-02  0.3082E-02  0.6307E-04  0.1749E-03  0.1891E-02  0.5005E-02  0.1723E-02  0.1329E-02  0.2061E-03  0.3746E-03  0.1080E-02  0.2235E-02
    -15.924  0.6006E-01  0.3415E-01  0.3765E-02  0.8755E-02  0.1819E-01  0.2665E-01  0.2274E-02  0.5257E-02  0.1818E-03  0.3877E-03  0.6108E-02  0.1155E-01  0.1821E-02  0.1821E-02  0.3440E-03  0.6624E-03  0.1967E-02  0.4030E-02
    -15.816  0.3417E-01  0.1903E-01  0.9423E-02  0.1606E-01  0.2885E-01  0.3198E-01  0.3878E-02  0.7980E-02  0.4168E-03  0.6559E-03  0.1469E-01  0.2015E-01  0.1983E-02  0.2635E-02  0.5723E-03  0.1064E-02  0.3511E-02  0.6651E-02
    -15.708  0.1825E-01  0.1442E-01  0.1801E-01  0.2258E-01  0.3514E-01  0.3300E-01  0.5755E-02  0.1196E-01  0.7183E-03  0.9222E-03  0.2626E-01  0.2943E-01  0.2504E-02  0.4518E-02  0.8819E-03  0.1858E-02  0.5667E-02  0.1208E-01
    -15.599  0.1343E-01  0.1339E-01  0.2550E-01  0.2579E-01  0.3577E-01  0.3018E-01  0.8003E-02  0.2106E-01  0.9893E-03  0.1131E-02  0.3769E-01  0.3752E-01  0.4048E-02  0.9178E-02  0.1491E-02  0.3719E-02  0.1017E-01  0.2498E-01
    -15.491  0.1257E-01  0.1224E-01  0.2827E-01  0.2515E-01  0.3129E-01  0.2186E-01  0.1394E-01  0.3797E-01  0.1129E-02  0.1133E-02  0.4486E-01  0.3888E-01  0.8756E-02  0.1584E-01  0.3173E-02  0.6340E-02  0.2280E-01  0.4331E-01
    -15.383  0.1248E-01  0.1067E-01  0.2614E-01  0.2047E-01  0.2173E-01  0.1154E-01  0.2856E-01  0.5502E-01  0.1029E-02  0.8549E-03  0.4259E-01  0.3018E-01  0.1709E-01  0.1869E-01  0.6092E-02  0.7443E-02  0.4487E-01  0.5143E-01
    -15.275  0.1254E-01  0.7982E-02  0.2034E-01  0.1269E-01  0.1147E-01  0.4647E-02  0.5033E-01  0.5608E-01  0.7124E-03  0.4637E-03  0.3082E-01  0.1670E-01  0.2274E-01  0.1422E-01  0.8056E-02  0.5652E-02  0.6016E-01  0.3956E-01
    -15.167  0.1070E-01  0.4431E-02  0.1258E-01  0.5478E-02  0.5007E-02  0.1639E-02  0.6394E-01  0.3815E-01  0.3641E-03  0.1781E-03  0.1650E-01  0.6465E-02  0.1918E-01  0.6998E-02  0.6795E-02  0.2772E-02  0.5141E-01  0.1974E-01
    -15.059  0.6591E-02  0.1695E-02  0.5712E-02  0.1564E-02  0.2068E-02  0.5509E-03  0.5452E-01  0.1715E-01  0.1360E-03  0.4893E-04  0.6407E-02  0.1757E-02  0.1023E-01  0.2284E-02  0.3634E-02  0.8968E-03  0.2792E-01  0.6529E-02
    -14.951  0.2729E-02  0.4368E-03  0.1777E-02  0.2890E-03  0.7904E-03  0.1620E-03  0.3026E-01  0.5134E-02  0.3697E-04  0.9686E-05  0.1785E-02  0.3377E-03  0.3507E-02  0.5071E-03  0.1253E-02  0.1961E-03  0.9800E-02  0.1465E-02
    -14.842  0.7408E-03  0.7500E-04  0.3587E-03  0.3464E-04  0.2399E-03  0.3565E-04  0.1076E-01  0.1026E-02  0.7189E-05  0.1345E-05  0.3503E-03  0.4506E-04  0.7915E-03  0.7720E-04  0.2844E-03  0.2934E-04  0.2268E-02  0.2246E-03
    -14.734  0.1302E-03  0.8425E-05  0.4528E-04  0.2730E-05  0.5108E-04  0.5214E-05  0.2423E-02  0.1345E-03  0.9607E-06  0.1244E-06  0.4678E-04  0.3993E-05  0.1194E-03  0.7918E-05  0.4319E-04  0.2966E-05  0.3504E-03  0.2312E-04
    -14.626  0.1463E-04  0.6024E-06  0.3511E-05  0.1431E-06  0.7105E-05  0.4732E-06  0.3406E-03  0.1120E-04  0.8445E-07  0.7300E-08  0.4076E-05  0.2243E-06  0.1203E-04  0.5294E-06  0.4381E-05  0.1965E-06  0.3599E-04  0.1549E-05
    -14.518  0.1035E-05  0.2663E-07  0.1671E-06  0.4946E-08  0.6187E-06  0.2569E-07  0.2943E-04  0.5729E-06  0.4744E-08  0.2638E-09  0.2238E-06  0.7731E-08  0.7944E-06  0.2229E-07  0.2916E-06  0.8238E-08  0.2411E-05  0.6533E-07
    -14.410  0.4533E-07  0.7102E-09  0.4940E-08  0.1098E-09  0.3278E-07  0.8183E-09  0.1537E-05  0.1753E-07  0.1680E-09  0.5778E-11  0.7579E-08  0.1604E-09  0.3348E-07  0.5748E-09  0.1237E-07  0.2122E-09  0.1025E-06  0.1686E-08
    -14.302  0.1206E-08  0.1122E-10  0.9243E-10  0.1512E-11  0.1035E-08  0.1511E-10  0.4781E-07  0.3149E-09  0.3729E-11  0.7611E-13  0.1561E-09  0.1983E-11  0.8752E-09  0.8884E-11  0.3252E-09  0.3282E-11  0.2692E-08  0.2606E-10
    -14.194  0.1920E-10  0.1035E-12  0.1107E-11  0.1256E-13  0.1919E-10  0.1605E-12  0.8740E-09  0.3280E-11  0.5150E-13  0.5996E-15  0.1939E-11  0.1451E-13  0.1385E-10  0.8105E-13  0.5169E-11  0.2998E-13  0.4270E-10  0.2377E-12
    -14.086  0.1804E-12  0.5535E-15  0.8441E-14  0.6122E-16  0.2068E-12  0.9764E-15  0.9295E-11  0.1965E-13  0.4372E-15  0.2807E-17  0.1442E-13  0.6251E-16  0.1301E-12  0.4312E-15  0.4875E-13  0.1597E-15  0.4017E-12  0.1264E-14
    -13.977  0.9896E-15  0.1676E-17  0.3998E-16  0.1643E-18  0.1284E-14  0.3381E-17  0.5707E-13  0.6702E-16  0.2246E-17  0.6543E-20  0.6374E-16  0.1188E-18  0.7166E-15  0.1294E-17  0.2691E-15  0.4805E-18  0.2212E-14  0.3790E-17
    -13.869  0.3060E-17  0.2317E-34  0.1026E-18  0.3726E-38  0.4542E-17  0.2044E-20  0.1998E-15  0.3575E-19  0.6298E-20  0.9268E-33  0.1422E-18  0.2125E-34  0.2232E-17  0.1749E-30  0.8412E-18  0.1965E-32  0.6886E-17  0.5557E-31
    -13.761  0.5426E-36  0.0000E+00  0.7306E-39  0.0000E+00  0.1632E-20  0.0000E+00  0.6445E-19  0.0000E+00  0.9112E-41  0.0000E+00  0.1279E-39  0.0000E+00  0.5147E-37  0.0000E+00  0.4547E-39  0.0000E+00  0.2001E-38  0.0000E+00
    -13.653  0.0000E+00  0.0000E+00  0.0000E+00  0.0000E+00  0.0000E+00  0.0000E+00  0.0000E+00  0.0000E+00  0.0000E+00  0.0000E+00  0.0000E+00  0.0000E+00  0.0000E+00  0.0000E+00  0.0000E+00  0.0000E+00  0.0000E+00  0.0000E+00
    -13.545  0.0000E+00  0.0000E+00  0.0000E+00  0.0000E+00  0.0000E+00  0.0000E+00  0.0000E+00  0.0000E+00  0.0000E+00  0.0000E+00  0.0000E+00  0.0000E+00  0.0000E+00  0.0000E+00  0.0000E+00  0.0000E+00  0.0000E+00  0.0000E+00
    -13.437  0.0000E+00  0.0000E+00  0.0000E+00  0.0000E+00  0.0000E+00  0.0000E+00  0.0000E+00  0.0000E+00  0.0000E+00  0.0000E+00  0.0000E+00  0.0000E+00  0.0000E+00  0.0000E+00  0.0000E+00  0.0000E+00  0.0000E+00  0.0000E+00
    -13.329  0.0000E+00  0.0000E+00  0.0000E+00  0.0000E+00  0.0000E+00  0.0000E+00  0.0000E+00  0.0000E+00  0.0000E+00  0.0000E+00  0.0000E+00  0.0000E+00  0.0000E+00  0.0000E+00  0.0000E+00  0.0000E+00  0.0000E+00  0.0000E+00
    -13.220  0.0000E+00  0.0000E+00  0.0000E+00  0.0000E+00  0.0000E+00  0.0000E+00  0.0000E+00  0.0000E+00  0.0000E+00  0.0000E+00  0.0000E+00  0.0000E+00  0.0000E+00  0.0000E+00  0.0000E+00  0.0000E+00  0.0000E+00  0.0000E+00
    -13.112  0.0000E+00  0.0000E+00  0.0000E+00  0.0000E+00  0.0000E+00  0.0000E+00  0.0000E+00  0.0000E+00  0.0000E+00  0.0000E+00  0.0000E+00  0.0000E+00  0.0000E+00  0.0000E+00  0.0000E+00  0.0000E+00  0.0000E+00  0.0000E+00