 vasp.5.3.2 13Sep12 (build Mar 19 2013 12:21:59) complex                        
  
 executed on             LinuxIFC date 2013.05.09  09:06:32
 running on    8 total cores
 distrk:  each k-point on    8 cores,    1 groups
 distr:  one band on NCORES_PER_BAND=   4 cores,    2 groups


--------------------------------------------------------------------------------------------------------


 INCAR:
 POTCAR:  PAW_PBE Cr 06Sep2000                    
 POTCAR:  PAW_PBE In_d 06Sep2000                  
 POTCAR:  PAW_PBE O 08Apr2002                     
 POTCAR:  PAW_PBE Cr 06Sep2000                    
   VRHFIN =Cr : d5 s1                                                           
   LEXCH  = PE                                                                  
   EATOM  =   276.9744 eV,   20.3570 Ry                                         
                                                                                
   TITEL  = PAW_PBE Cr 06Sep2000                                                
   LULTRA =        F    use ultrasoft PP ?                                      
   IUNSCR =        1    unscreen: 0-lin 1-nonlin 2-no                           
   RPACOR =    2.080    partial core radius                                     
   POMASS =   51.996; ZVAL   =    6.000    mass and valenz                      
   RCORE  =    2.500    outmost cutoff radius                                   
   RWIGS  =    2.500; RWIGS  =    1.323    wigner-seitz radius (au A)           
   ENMAX  =  227.082; ENMIN  =  170.311 eV                                      
   RCLOC  =    1.721    cutoff for local pot                                    
   LCOR   =        T    correct aug charges                                     
   LPAW   =        T    paw PP                                                  
   EAUG   =  402.108                                                            
   DEXC   =    -.035                                                            
   RMAX   =    3.060    core radius for proj-oper                               
   RAUG   =    1.300    factor for augmentation sphere                          
   RDEP   =    2.609    radius for radial grids                                 
   QCUT   =   -4.085; QGAM   =    8.171    optimization parameters              
                                                                                
   Description                                                                  
     l     E      TYP  RCUT    TYP  RCUT                                        
     2   .000     23  2.500                                                     
     2   .000     23  2.500                                                     
     0   .000     23  2.500                                                     
     0   .000     23  2.500                                                     
     1  -.400     23  2.500                                                     
     1  2.000     23  2.500                                                     
     3   .000      7   .000                                                     
  local pseudopotential read in
  partial core-charges read in
  atomic valenz-charges read in
  non local Contribution for L=           2  read in
    real space projection operators read in
  non local Contribution for L=           2  read in
    real space projection operators read in
  non local Contribution for L=           0  read in
    real space projection operators read in
  non local Contribution for L=           0  read in
    real space projection operators read in
  non local Contribution for L=           1  read in
    real space projection operators read in
  non local Contribution for L=           1  read in
    real space projection operators read in
    PAW grid and wavefunctions read in
 
   number of l-projection  operators is LMAX  =           6
   number of lm-projection operators is LMMAX =          18
 
 POTCAR:  PAW_PBE In_d 06Sep2000                  
   VRHFIN =In: s2p1                                                             
   LEXCH  = PE                                                                  
   EATOM  =  1576.8738 eV,  115.8970 Ry                                         
                                                                                
   TITEL  = PAW_PBE In_d 06Sep2000                                              
   LULTRA =        F    use ultrasoft PP ?                                      
   IUNSCR =        1    unscreen: 0-lin 1-nonlin 2-no                           
   RPACOR =    2.200    partial core radius                                     
   POMASS =  114.820; ZVAL   =   13.000    mass and valenz                      
   RCORE  =    2.500    outmost cutoff radius                                   
   RWIGS  =    3.170; RWIGS  =    1.677    wigner-seitz radius (au A)           
   ENMAX  =  239.218; ENMIN  =  179.413 eV                                      
   ICORE  =        3    local potential                                         
   LCOR   =        T    correct aug charges                                     
   LPAW   =        T    paw PP                                                  
   EAUG   =  449.704                                                            
   DEXC   =    -.003                                                            
   RMAX   =    2.981    core radius for proj-oper                               
   RAUG   =    1.300    factor for augmentation sphere                          
   RDEP   =    2.630    radius for radial grids                                 
   QCUT   =   -4.193; QGAM   =    8.386    optimization parameters              
                                                                                
   Description                                                                  
     l     E      TYP  RCUT    TYP  RCUT                                        
     2   .000     23  2.500                                                     
     2  -.100     23  2.500                                                     
     0   .000     23  2.500                                                     
     0   .000     23  2.500                                                     
     1   .000     23  2.500                                                     
     1   .000     23  2.500                                                     
     3  -.100      7  2.500                                                     
  local pseudopotential read in
  partial core-charges read in
  atomic valenz-charges read in
  non local Contribution for L=           2  read in
    real space projection operators read in
  non local Contribution for L=           2  read in
    real space projection operators read in
  non local Contribution for L=           0  read in
    real space projection operators read in
  non local Contribution for L=           0  read in
    real space projection operators read in
  non local Contribution for L=           1  read in
    real space projection operators read in
  non local Contribution for L=           1  read in
    real space projection operators read in
    PAW grid and wavefunctions read in
 
   number of l-projection  operators is LMAX  =           6
   number of lm-projection operators is LMMAX =          18
 
 POTCAR:  PAW_PBE O 08Apr2002                     
   VRHFIN =O: s2p4                                                              
   LEXCH  = PE                                                                  
   EATOM  =   432.3788 eV,   31.7789 Ry                                         
                                                                                
   TITEL  = PAW_PBE O 08Apr2002                                                 
   LULTRA =        F    use ultrasoft PP ?                                      
   IUNSCR =        0    unscreen: 0-lin 1-nonlin 2-no                           
   RPACOR =     .000    partial core radius                                     
   POMASS =   16.000; ZVAL   =    6.000    mass and valenz                      
   RCORE  =    1.520    outmost cutoff radius                                   
   RWIGS  =    1.550; RWIGS  =     .820    wigner-seitz radius (au A)           
   ENMAX  =  400.000; ENMIN  =  300.000 eV                                      
   ICORE  =        2    local potential                                         
   LCOR   =        T    correct aug charges                                     
   LPAW   =        T    paw PP                                                  
   EAUG   =  605.392                                                            
   DEXC   =     .000                                                            
   RMAX   =    2.264    core radius for proj-oper                               
   RAUG   =    1.300    factor for augmentation sphere                          
   RDEP   =    1.550    radius for radial grids                                 
   QCUT   =   -5.520; QGAM   =   11.041    optimization parameters              
                                                                                
   Description                                                                  
     l     E      TYP  RCUT    TYP  RCUT                                        
     0   .000     23  1.200                                                     
     0  -.700     23  1.200                                                     
     1   .000     23  1.520                                                     
     1   .600     23  1.520                                                     
     2   .000      7  1.500                                                     
  local pseudopotential read in
  atomic valenz-charges read in
  non local Contribution for L=           0  read in
    real space projection operators read in
  non local Contribution for L=           0  read in
    real space projection operators read in
  non local Contribution for L=           1  read in
    real space projection operators read in
  non local Contribution for L=           1  read in
    real space projection operators read in
    PAW grid and wavefunctions read in
 
   number of l-projection  operators is LMAX  =           4
   number of lm-projection operators is LMMAX =           8
 
PAW_PBE Cr 06Sep2000                    :
 energy of atom  1       EATOM= -276.9744
 kinetic energy error for atom=    0.0128 (will be added to EATOM!!)
PAW_PBE In_d 06Sep2000                  :
 energy of atom  2       EATOM=-1576.8738
 kinetic energy error for atom=    0.0380 (will be added to EATOM!!)
PAW_PBE O 08Apr2002                     :
 energy of atom  3       EATOM= -432.3788
 kinetic energy error for atom=    1.1955 (will be added to EATOM!!)
 
 
 POSCAR: Cr O In                                 
  positions in direct lattice
  No initial velocities read in
 exchange correlation table for  LEXCH =        8
   RHO(1)=    0.500       N(1)  =     2000
   RHO(2)=  100.500       N(2)  =     4000
 


--------------------------------------------------------------------------------------------------------


 ion  position               nearest neighbor table
   1  0.000  0.000  0.500-   5 1.91  11 1.91   8 2.01   9 2.01  10 2.01   7 2.01   4 3.27   4 3.27

   2  0.642  0.358  0.736-   6 1.68  11 1.68   9 1.77   8 1.77   4 3.49   4 3.52   4 3.52
   3  0.358  0.642  0.264-  12 1.68   5 1.68  10 1.77   7 1.77   4 3.49   4 3.52   4 3.52
   4  0.000  0.000  0.000-   6 2.20  12 2.20   8 2.25   9 2.25  10 2.25   7 2.25   1 3.27   1 3.27
                             3 3.49   2 3.49   2 3.52   3 3.52   2 3.52   3 3.52
   5  0.223  0.777  0.452-   3 1.68   1 1.91
   6  0.743  0.257  0.957-   2 1.68   4 2.20
   7  0.211  0.267  0.274-   3 1.77   1 2.01   4 2.25
   8  0.267  0.211  0.726-   2 1.77   1 2.01   4 2.25
   9  0.789  0.733  0.726-   2 1.77   1 2.01   4 2.25
  10  0.733  0.789  0.274-   3 1.77   1 2.01   4 2.25
  11  0.777  0.223  0.548-   2 1.68   1 1.91
  12  0.257  0.743  0.043-   3 1.68   4 2.20
 
  LATTYP: Found a base centered monoclinic cell.
 ALAT       =     8.4711000000
 B/A-ratio  =     0.6658403277
 C/A-ratio  =     2.1440128461
 COS(beta)  =    -0.7766666567
  
  Lattice vectors:
  
 A1 = (  -4.2355500000,  -2.8202000000,   0.0000000000)
 A2 = (  -4.2355500000,   2.8202000000,   0.0000000000)
 A3 = (  16.9467600000,   0.0000000000,  -6.5322980000)


Analysis of symmetry for initial positions (statically):
=====================================================================
 Subroutine PRICEL returns:
 Original cell was already a primitive cell.
 

 Routine SETGRP: Setting up the symmetry group for a 
 base centered monoclinic supercell.


 Subroutine GETGRP returns: Found  4 space group operations
 (whereof  4 operations were pure point group operations)
 out of a pool of  4 trial point group operations.


The static configuration has the point symmetry C_2h.


Analysis of symmetry for dynamics (positions and initial velocities):
=====================================================================
 Subroutine PRICEL returns:
 Original cell was already a primitive cell.
 

 Routine SETGRP: Setting up the symmetry group for a 
 base centered monoclinic supercell.


 Subroutine GETGRP returns: Found  4 space group operations
 (whereof  4 operations were pure point group operations)
 out of a pool of  4 trial point group operations.


The dynamic configuration has the point symmetry C_2h.


Analysis of magnetic symmetry:
=====================================================================

 Subroutine MAGSYM returns: Found  4 space group operations
 (whereof  4 operations were pure point group operations)
 out of a pool of  4 trial space group operations
 (whereof  4 operations were pure point group operations)
 and found also     1 'primitive' translations


The magnetic configuration has the point symmetry C_2h.
 
 
 KPOINTS: KPOINTS                                 

Automatic generation of k-mesh.
Space group operators:
 irot       det(A)        alpha          n_x          n_y          n_z        tau_x        tau_y        tau_z
    1     1.000000     0.000000     1.000000     0.000000     0.000000     0.000000     0.000000     0.000000
    2    -1.000000     0.000000     1.000000     0.000000     0.000000     0.000000     0.000000     0.000000
    3     1.000000   180.000000     0.000000     1.000000     0.000000     0.000000     0.000000     0.000000
    4    -1.000000   180.000000     0.000000     1.000000     0.000000     0.000000     0.000000     0.000000
 
 Subroutine IBZKPT returns following result:
 ===========================================
 
 Found     72 irreducible k-points:
 
 Following reciprocal coordinates:
            Coordinates               Weight
  0.000000  0.000000  0.000000      1.000000
  0.142857  0.000000  0.000000      4.000000
  0.285714  0.000000  0.000000      4.000000
  0.428571  0.000000  0.000000      4.000000
  0.142857  0.142857  0.000000      2.000000
  0.285714  0.142857  0.000000      4.000000
  0.428571  0.142857  0.000000      4.000000
 -0.428571  0.142857  0.000000      4.000000
 -0.285714  0.142857  0.000000      4.000000
 -0.142857  0.142857  0.000000      2.000000
  0.285714  0.285714  0.000000      2.000000
  0.428571  0.285714  0.000000      4.000000
 -0.428571  0.285714  0.000000      4.000000
 -0.285714  0.285714  0.000000      2.000000
  0.428571  0.428571  0.000000      2.000000
 -0.428571  0.428571  0.000000      2.000000
  0.000000  0.000000  0.200000      2.000000
  0.142857  0.000000  0.200000      4.000000
  0.285714  0.000000  0.200000      4.000000
  0.428571  0.000000  0.200000      4.000000
 -0.428571  0.000000  0.200000      4.000000
 -0.285714  0.000000  0.200000      4.000000
 -0.142857  0.000000  0.200000      4.000000
  0.142857  0.142857  0.200000      4.000000
  0.285714  0.142857  0.200000      4.000000
  0.428571  0.142857  0.200000      4.000000
 -0.428571  0.142857  0.200000      4.000000
 -0.285714  0.142857  0.200000      4.000000
 -0.142857  0.142857  0.200000      2.000000
  0.142857  0.285714  0.200000      4.000000
  0.285714  0.285714  0.200000      4.000000
  0.428571  0.285714  0.200000      4.000000
 -0.428571  0.285714  0.200000      4.000000
 -0.285714  0.285714  0.200000      2.000000
  0.142857  0.428571  0.200000      4.000000
  0.285714  0.428571  0.200000      4.000000
  0.428571  0.428571  0.200000      4.000000
 -0.428571  0.428571  0.200000      2.000000
  0.142857 -0.428571  0.200000      4.000000
  0.285714 -0.428571  0.200000      4.000000
  0.428571 -0.428571  0.200000      2.000000
  0.142857 -0.285714  0.200000      4.000000
  0.285714 -0.285714  0.200000      2.000000
  0.142857 -0.142857  0.200000      2.000000
  0.000000  0.000000  0.400000      2.000000
  0.142857  0.000000  0.400000      4.000000
  0.285714  0.000000  0.400000      4.000000
  0.428571  0.000000  0.400000      4.000000
 -0.428571  0.000000  0.400000      4.000000
 -0.285714  0.000000  0.400000      4.000000
 -0.142857  0.000000  0.400000      4.000000
  0.142857  0.142857  0.400000      4.000000
  0.285714  0.142857  0.400000      4.000000
  0.428571  0.142857  0.400000      4.000000
 -0.428571  0.142857  0.400000      4.000000
 -0.285714  0.142857  0.400000      4.000000
 -0.142857  0.142857  0.400000      2.000000
  0.142857  0.285714  0.400000      4.000000
  0.285714  0.285714  0.400000      4.000000
  0.428571  0.285714  0.400000      4.000000
 -0.428571  0.285714  0.400000      4.000000
 -0.285714  0.285714  0.400000      2.000000
  0.142857  0.428571  0.400000      4.000000
  0.285714  0.428571  0.400000      4.000000
  0.428571  0.428571  0.400000      4.000000
 -0.428571  0.428571  0.400000      2.000000
  0.142857 -0.428571  0.400000      4.000000
  0.285714 -0.428571  0.400000      4.000000
  0.428571 -0.428571  0.400000      2.000000
  0.142857 -0.285714  0.400000      4.000000
  0.285714 -0.285714  0.400000      2.000000
  0.142857 -0.142857  0.400000      2.000000
 
 Following cartesian coordinates:
            Coordinates               Weight
  0.000000  0.000000  0.000000      1.000000
  0.016864  0.025327  0.000012      4.000000
  0.033728  0.050655  0.000024      4.000000
  0.050592  0.075982  0.000035      4.000000
  0.000000  0.050655  0.000000      2.000000
  0.016864  0.075982  0.000012      4.000000
  0.033728  0.101310  0.000024      4.000000
 -0.067456 -0.050655 -0.000047      4.000000
 -0.050592 -0.025327 -0.000035      4.000000
 -0.033728  0.000000 -0.000024      2.000000
  0.000000  0.101310  0.000000      2.000000
  0.016864  0.126637  0.000012      4.000000
 -0.084320 -0.025327 -0.000059      4.000000
 -0.067456  0.000000 -0.000047      2.000000
  0.000000  0.151965  0.000000      2.000000
 -0.101184  0.000000 -0.000071      2.000000
  0.000000  0.000000  0.030617      2.000000
  0.016864  0.025327  0.030629      4.000000
  0.033728  0.050655  0.030641      4.000000
  0.050592  0.075982  0.030652      4.000000
 -0.050592 -0.075982  0.030582      4.000000
 -0.033728 -0.050655  0.030594      4.000000
 -0.016864 -0.025327  0.030605      4.000000
  0.000000  0.050655  0.030617      4.000000
  0.016864  0.075982  0.030629      4.000000
  0.033728  0.101310  0.030641      4.000000
 -0.067456 -0.050655  0.030570      4.000000
 -0.050592 -0.025327  0.030582      4.000000
 -0.033728  0.000000  0.030594      2.000000
 -0.016864  0.075982  0.030605      4.000000
  0.000000  0.101310  0.030617      4.000000
  0.016864  0.126637  0.030629      4.000000
 -0.084320 -0.025327  0.030558      4.000000
 -0.067456  0.000000  0.030570      2.000000
 -0.033728  0.101310  0.030594      4.000000
 -0.016864  0.126637  0.030605      4.000000
  0.000000  0.151965  0.030617      4.000000
 -0.101184  0.000000  0.030546      2.000000
  0.067456 -0.050655  0.030664      4.000000
  0.084320 -0.025327  0.030676      4.000000
  0.101184  0.000000  0.030688      2.000000
  0.050592 -0.025327  0.030652      4.000000
  0.067456  0.000000  0.030664      2.000000
  0.033728  0.000000  0.030641      2.000000
  0.000000  0.000000  0.061234      2.000000
  0.016864  0.025327  0.061246      4.000000
  0.033728  0.050655  0.061258      4.000000
  0.050592  0.075982  0.061270      4.000000
 -0.050592 -0.075982  0.061199      4.000000
 -0.033728 -0.050655  0.061211      4.000000
 -0.016864 -0.025327  0.061222      4.000000
  0.000000  0.050655  0.061234      4.000000
  0.016864  0.075982  0.061246      4.000000
  0.033728  0.101310  0.061258      4.000000
 -0.067456 -0.050655  0.061187      4.000000
 -0.050592 -0.025327  0.061199      4.000000
 -0.033728  0.000000  0.061211      2.000000
 -0.016864  0.075982  0.061222      4.000000
  0.000000  0.101310  0.061234      4.000000
  0.016864  0.126637  0.061246      4.000000
 -0.084320 -0.025327  0.061175      4.000000
 -0.067456  0.000000  0.061187      2.000000
 -0.033728  0.101310  0.061211      4.000000
 -0.016864  0.126637  0.061222      4.000000
  0.000000  0.151965  0.061234      4.000000
 -0.101184  0.000000  0.061164      2.000000
  0.067456 -0.050655  0.061281      4.000000
  0.084320 -0.025327  0.061293      4.000000
  0.101184  0.000000  0.061305      2.000000
  0.050592 -0.025327  0.061270      4.000000
  0.067456  0.000000  0.061281      2.000000
  0.033728  0.000000  0.061258      2.000000
 


--------------------------------------------------------------------------------------------------------




 Dimension of arrays:
   k-points           NKPTS =     72   k-points in BZ     NKDIM =     72   number of bands    NBANDS=     56
   number of dos      NEDOS =    301   number of ions     NIONS =     12
   non local maximal  LDIM  =      6   non local SUM 2l+1 LMDIM =     18
   total plane-waves  NPLWV =  16128
   max r-space proj   IRMAX =      1   max aug-charges    IRDMAX=   1672
   dimension x,y,z NGX =    24 NGY =   24 NGZ =   28
   dimension x,y,z NGXF=    30 NGYF=   30 NGZF=   40
   support grid    NGXF=    30 NGYF=   30 NGZF=   40
   ions per type =               3   1   8
 NGX,Y,Z   is equivalent  to a cutoff of   7.84,  7.84,  7.13 a.u.
 NGXF,Y,Z  is equivalent  to a cutoff of   9.80,  9.80, 10.18 a.u.


 I would recommend the setting:
   dimension x,y,z NGX =    22 NGY =   22 NGZ =   28
 SYSTEM =  unknown system                          
 POSCAR =  Cr O In                                 

 Startparameter for this run:
   NWRITE =      2    write-flag & timer
   PREC   = low       normal or accurate (medium, high low for compatibility)
   ISTART =      0    job   : 0-new  1-cont  2-samecut
   ICHARG =      1    charge: 1-file 2-atom 10-const
   ISPIN  =      2    spin polarized calculation?
   LNONCOLLINEAR =      F non collinear calculations
   LSORBIT =      F    spin-orbit coupling
   INIWAV =      1    electr: 0-lowe 1-rand  2-diag
   LASPH  =      F    aspherical Exc in radial PAW
   METAGGA=      F    non-selfconsistent MetaGGA calc.

 Electronic Relaxation 1
   ENCUT  =  300.0 eV  22.05 Ry    4.70 a.u.   7.19  7.19  9.23*2*pi/ulx,y,z
   ENINI  =  300.0     initial cutoff
   ENAUG  =  605.4 eV  augmentation charge cutoff
   NELM   =     60;   NELMIN=  2; NELMDL=  0     # of ELM steps 
   EDIFF  = 0.1E-03   stopping-criterion for ELM
   LREAL  =      F    real-space projection
   NLSPLINE    = F    spline interpolate recip. space projectors
   LCOMPAT=      F    compatible to vasp.4.4
   GGA_COMPAT  = T    GGA compatible to vasp.4.4-vasp.4.6
   LMAXPAW     = -100 max onsite density
   LMAXMIX     =    2 max onsite mixed and CHGCAR
   VOSKOWN=      0    Vosko Wilk Nusair interpolation
   ROPT   =    0.00000   0.00000   0.00000
 Ionic relaxation
   EDIFFG = 0.1E-02   stopping-criterion for IOM
   NSW    =      0    number of steps for IOM
   NBLOCK =      1;   KBLOCK =      1    inner block; outer block 
   IBRION =     -1    ionic relax: 0-MD 1-quasi-New 2-CG
   NFREE  =      0    steps in history (QN), initial steepest desc. (CG)
   ISIF   =      2    stress and relaxation
   IWAVPR =     10    prediction:  0-non 1-charg 2-wave 3-comb
   ISYM   =      1    0-nonsym 1-usesym 2-fastsym
   LCORR  =      T    Harris-Foulkes like correction to forces

   POTIM  = 0.5000    time-step for ionic-motion
   TEIN   =    0.0    initial temperature
   TEBEG  =    0.0;   TEEND  =   0.0 temperature during run
   SMASS  =  -3.00    Nose mass-parameter (am)
   estimated Nose-frequenzy (Omega)   =  0.10E-29 period in steps =****** mass=  -0.592E-27a.u.
   SCALEE = 1.0000    scale energy and forces
   NPACO  =    256;   APACO  = 16.0  distance and # of slots for P.C.
   PSTRESS=    0.0 pullay stress

  Mass of Ions in am
   POMASS =  52.00114.82 16.00
  Ionic Valenz
   ZVAL   =   6.00 13.00  6.00
  Atomic Wigner-Seitz radii
   RWIGS  =  -1.00 -1.00 -1.00
  virtual crystal weights 
   VCA    =   1.00  1.00  1.00
   NELECT =      79.0000    total number of electrons
   NUPDOWN=      -1.0000    fix difference up-down

 DOS related values:
   EMIN   =  10.00;   EMAX   =-10.00  energy-range for DOS
   EFERMI =   0.00
   ISMEAR =     0;   SIGMA  =   0.20  broadening in eV -4-tet -1-fermi 0-gaus

 Electronic relaxation 2 (details)
   IALGO  =     68    algorithm
   LDIAG  =      T    sub-space diagonalisation (order eigenvalues)
   LSUBROT=      T    optimize rotation matrix (better conditioning)
   TURBO    =      0    0=normal 1=particle mesh
   IRESTART =      0    0=no restart 2=restart with 2 vectors
   NREBOOT  =      0    no. of reboots
   NMIN     =      0    reboot dimension
   EREF     =   0.00    reference energy to select bands
   IMIX   =      4    mixing-type and parameters
     AMIX     =   0.40;   BMIX     =  1.00
     AMIX_MAG =   1.60;   BMIX_MAG =  1.00
     AMIN     =   0.10
     WC   =   100.;   INIMIX=   1;  MIXPRE=   1;  MAXMIX= -45

 Intra band minimization:
   WEIMIN = 0.0000     energy-eigenvalue tresh-hold
   EBREAK =  0.45E-06  absolut break condition
   DEPER  =   0.30     relativ break condition  

   TIME   =   0.40     timestep for ELM

  volume/ion in A,a.u.               =      13.00        87.76
  Fermi-wavevector in a.u.,A,eV,Ry     =   1.304734  2.465590 23.161615  1.702331
  Thomas-Fermi vector in A             =   2.435650
 
 Write flags
   LWAVE  =      F    write WAVECAR
   LCHARG =      T    write CHGCAR
   LVTOT  =      F    write LOCPOT, total local potential
   LVHAR  =      T    write LOCPOT, Hartree potential only
   LELF   =      F    write electronic localiz. function (ELF)
   LORBIT =     11    0 simple, 1 ext, 2 COOP (PROOUT)


 Dipole corrections
   LMONO  =      F    monopole corrections only (constant potential shift)
   LDIPOL =      F    correct potential (dipole corrections)
   IDIPOL =      0    1-x, 2-y, 3-z, 4-all directions 
   EPSILON=  1.0000000 bulk dielectric constant

 LDA+U is selected, type is set to LDAUTYPE =  2
   angular momentum for each species LDAUL =     2   -1   -1
   U (eV)           for each species LDAUU =   3.5  0.0  0.0
   J (eV)           for each species LDAUJ =   0.0  0.0  0.0
 Exchange correlation treatment:
   GGA     =    --    GGA type
   LEXCH   =     8    internal setting for exchange type
   VOSKOWN=      0    Vosko Wilk Nusair interpolation
   LHFCALC =     F    Hartree Fock is set to
   LHFONE  =     F    Hartree Fock one center treatment
   AEXX    =    0.0000 exact exchange contribution

 Linear response parameters
   LEPSILON=     F    determine dielectric tensor
   LRPA    =     F    only Hartree local field effects (RPA)
   LNABLA  =     F    use nabla operator in PAW spheres
   LVEL    =     F    velocity operator in full k-point grid
   LINTERFAST=   F  fast interpolation
   KINTER  =     0    interpolate to denser k-point grid
   CSHIFT  =0.1000    complex shift for real part using Kramers Kronig
   OMEGAMAX=  -1.0    maximum frequency
   DEG_THRESHOLD= 0.2000000E-02 threshold for treating states as degnerate
   RTIME   =    0.100 relaxation time in fs

 Orbital magnetization related:
   ORBITALMAG=     F  switch on orbital magnetization
   LCHIMAG   =     F  perturbation theory with respect to B field
   DQ        =  0.001000  dq finite difference perturbation B field



--------------------------------------------------------------------------------------------------------


 Static calculation
 charge density and potential will be updated during run
 spin polarized calculation
 RMM-DIIS sequential band-by-band and
  variant of blocked Davidson during initial phase
 perform sub-space diagonalisation
    before iterative eigenvector-optimisation
 modified Broyden-mixing scheme, WC =      100.0
 initial mixing is a Kerker type mixing with AMIX =  0.4000 and BMIX =      1.0000
 Hartree-type preconditioning will be used
 using additional bands           16
 reciprocal scheme for non local part
 use partial core corrections
 calculate Harris-corrections to forces 
   (improved forces if not selfconsistent)
 use gradient corrections 
 use of overlap-Matrix (Vanderbilt PP)
 Gauss-broadening in eV      SIGMA  =   0.20


--------------------------------------------------------------------------------------------------------


  energy-cutoff  :      300.00
  volume of cell :      156.06
      direct lattice vectors                 reciprocal lattice vectors
     4.235550000  2.820200000  0.000000000     0.118048423  0.177292391  0.000082406
    -4.235550000  2.820200000  0.000000000    -0.118048423  0.177292391 -0.000082406
    -0.004560000  0.000000000  6.532298000     0.000000000  0.000000000  0.153085484

  length of vectors
     5.088556951  5.088556951  6.532299592     0.212997720  0.212997720  0.153085484


 
 k-points in units of 2pi/SCALE and weight: KPOINTS                                 
   0.00000000  0.00000000  0.00000000       0.004
   0.01686406  0.02532748  0.00001177       0.016
   0.03372812  0.05065497  0.00002354       0.016
   0.05059218  0.07598245  0.00003532       0.016
   0.00000000  0.05065497  0.00000000       0.008
   0.01686406  0.07598245  0.00001177       0.016
   0.03372812  0.10130994  0.00002354       0.016
  -0.06745624 -0.05065497 -0.00004709       0.016
  -0.05059218 -0.02532748 -0.00003532       0.016
  -0.03372812  0.00000000 -0.00002354       0.008
   0.00000000  0.10130994  0.00000000       0.008
   0.01686406  0.12663742  0.00001177       0.016
  -0.08432030 -0.02532748 -0.00005886       0.016
  -0.06745624  0.00000000 -0.00004709       0.008
   0.00000000  0.15196491  0.00000000       0.008
  -0.10118436  0.00000000 -0.00007063       0.008
   0.00000000  0.00000000  0.03061710       0.008
   0.01686406  0.02532748  0.03062887       0.016
   0.03372812  0.05065497  0.03064064       0.016
   0.05059218  0.07598245  0.03065241       0.016
  -0.05059218 -0.07598245  0.03058178       0.016
  -0.03372812 -0.05065497  0.03059355       0.016
  -0.01686406 -0.02532748  0.03060532       0.016
   0.00000000  0.05065497  0.03061710       0.016
   0.01686406  0.07598245  0.03062887       0.016
   0.03372812  0.10130994  0.03064064       0.016
  -0.06745624 -0.05065497  0.03057001       0.016
  -0.05059218 -0.02532748  0.03058178       0.016
  -0.03372812  0.00000000  0.03059355       0.008
  -0.01686406  0.07598245  0.03060532       0.016
   0.00000000  0.10130994  0.03061710       0.016
   0.01686406  0.12663742  0.03062887       0.016
  -0.08432030 -0.02532748  0.03055824       0.016
  -0.06745624  0.00000000  0.03057001       0.008
  -0.03372812  0.10130994  0.03059355       0.016
  -0.01686406  0.12663742  0.03060532       0.016
   0.00000000  0.15196491  0.03061710       0.016
  -0.10118436  0.00000000  0.03054646       0.008
   0.06745624 -0.05065497  0.03066419       0.016
   0.08432030 -0.02532748  0.03067596       0.016
   0.10118436  0.00000000  0.03068773       0.008
   0.05059218 -0.02532748  0.03065241       0.016
   0.06745624  0.00000000  0.03066419       0.008
   0.03372812  0.00000000  0.03064064       0.008
   0.00000000  0.00000000  0.06123419       0.008
   0.01686406  0.02532748  0.06124597       0.016
   0.03372812  0.05065497  0.06125774       0.016
   0.05059218  0.07598245  0.06126951       0.016
  -0.05059218 -0.07598245  0.06119888       0.016
  -0.03372812 -0.05065497  0.06121065       0.016
  -0.01686406 -0.02532748  0.06122242       0.016
   0.00000000  0.05065497  0.06123419       0.016
   0.01686406  0.07598245  0.06124597       0.016
   0.03372812  0.10130994  0.06125774       0.016
  -0.06745624 -0.05065497  0.06118710       0.016
  -0.05059218 -0.02532748  0.06119888       0.016
  -0.03372812  0.00000000  0.06121065       0.008
  -0.01686406  0.07598245  0.06122242       0.016
   0.00000000  0.10130994  0.06123419       0.016
   0.01686406  0.12663742  0.06124597       0.016
  -0.08432030 -0.02532748  0.06117533       0.016
  -0.06745624  0.00000000  0.06118710       0.008
  -0.03372812  0.10130994  0.06121065       0.016
  -0.01686406  0.12663742  0.06122242       0.016
   0.00000000  0.15196491  0.06123419       0.016
  -0.10118436  0.00000000  0.06116356       0.008
   0.06745624 -0.05065497  0.06128128       0.016
   0.08432030 -0.02532748  0.06129305       0.016
   0.10118436  0.00000000  0.06130483       0.008
   0.05059218 -0.02532748  0.06126951       0.016
   0.06745624  0.00000000  0.06128128       0.008
   0.03372812  0.00000000  0.06125774       0.008
 
 k-points in reciprocal lattice and weights: KPOINTS                                 
   0.00000000  0.00000000  0.00000000       0.004
   0.14285714  0.00000000  0.00000000       0.016
   0.28571429  0.00000000  0.00000000       0.016
   0.42857143  0.00000000  0.00000000       0.016
   0.14285714  0.14285714  0.00000000       0.008
   0.28571429  0.14285714  0.00000000       0.016
   0.42857143  0.14285714  0.00000000       0.016
  -0.42857143  0.14285714  0.00000000       0.016
  -0.28571429  0.14285714  0.00000000       0.016
  -0.14285714  0.14285714  0.00000000       0.008
   0.28571429  0.28571429  0.00000000       0.008
   0.42857143  0.28571429  0.00000000       0.016
  -0.42857143  0.28571429  0.00000000       0.016
  -0.28571429  0.28571429  0.00000000       0.008
   0.42857143  0.42857143  0.00000000       0.008
  -0.42857143  0.42857143  0.00000000       0.008
   0.00000000  0.00000000  0.20000000       0.008
   0.14285714  0.00000000  0.20000000       0.016
   0.28571429  0.00000000  0.20000000       0.016
   0.42857143  0.00000000  0.20000000       0.016
  -0.42857143  0.00000000  0.20000000       0.016
  -0.28571429  0.00000000  0.20000000       0.016
  -0.14285714  0.00000000  0.20000000       0.016
   0.14285714  0.14285714  0.20000000       0.016
   0.28571429  0.14285714  0.20000000       0.016
   0.42857143  0.14285714  0.20000000       0.016
  -0.42857143  0.14285714  0.20000000       0.016
  -0.28571429  0.14285714  0.20000000       0.016
  -0.14285714  0.14285714  0.20000000       0.008
   0.14285714  0.28571429  0.20000000       0.016
   0.28571429  0.28571429  0.20000000       0.016
   0.42857143  0.28571429  0.20000000       0.016
  -0.42857143  0.28571429  0.20000000       0.016
  -0.28571429  0.28571429  0.20000000       0.008
   0.14285714  0.42857143  0.20000000       0.016
   0.28571429  0.42857143  0.20000000       0.016
   0.42857143  0.42857143  0.20000000       0.016
  -0.42857143  0.42857143  0.20000000       0.008
   0.14285714 -0.42857143  0.20000000       0.016
   0.28571429 -0.42857143  0.20000000       0.016
   0.42857143 -0.42857143  0.20000000       0.008
   0.14285714 -0.28571429  0.20000000       0.016
   0.28571429 -0.28571429  0.20000000       0.008
   0.14285714 -0.14285714  0.20000000       0.008
   0.00000000  0.00000000  0.40000000       0.008
   0.14285714  0.00000000  0.40000000       0.016
   0.28571429  0.00000000  0.40000000       0.016
   0.42857143  0.00000000  0.40000000       0.016
  -0.42857143  0.00000000  0.40000000       0.016
  -0.28571429  0.00000000  0.40000000       0.016
  -0.14285714  0.00000000  0.40000000       0.016
   0.14285714  0.14285714  0.40000000       0.016
   0.28571429  0.14285714  0.40000000       0.016
   0.42857143  0.14285714  0.40000000       0.016
  -0.42857143  0.14285714  0.40000000       0.016
  -0.28571429  0.14285714  0.40000000       0.016
  -0.14285714  0.14285714  0.40000000       0.008
   0.14285714  0.28571429  0.40000000       0.016
   0.28571429  0.28571429  0.40000000       0.016
   0.42857143  0.28571429  0.40000000       0.016
  -0.42857143  0.28571429  0.40000000       0.016
  -0.28571429  0.28571429  0.40000000       0.008
   0.14285714  0.42857143  0.40000000       0.016
   0.28571429  0.42857143  0.40000000       0.016
   0.42857143  0.42857143  0.40000000       0.016
  -0.42857143  0.42857143  0.40000000       0.008
   0.14285714 -0.42857143  0.40000000       0.016
   0.28571429 -0.42857143  0.40000000       0.016
   0.42857143 -0.42857143  0.40000000       0.008
   0.14285714 -0.28571429  0.40000000       0.016
   0.28571429 -0.28571429  0.40000000       0.008
   0.14285714 -0.14285714  0.40000000       0.008
 
 position of ions in fractional coordinates (direct lattice) 
   0.00000000  0.00000000  0.50000000
   0.64240000  0.35760000  0.73590000
   0.35760000  0.64240000  0.26410000
   0.00000000  0.00000000  0.00000000
   0.22290000  0.77710000  0.45220000
   0.74280000  0.25720000  0.95710000
   0.21070000  0.26650000  0.27410000
   0.26650000  0.21070000  0.72590000
   0.78930000  0.73350000  0.72590000
   0.73350000  0.78930000  0.27410000
   0.77710000  0.22290000  0.54780000
   0.25720000  0.74280000  0.04290000
 
 position of ions in cartesian coordinates  (Angst):
  -0.00228000  0.00000000  3.26614900
   1.20292894  2.82020000  4.80711810
  -1.20748894  2.82020000  1.72517990
   0.00000000  0.00000000  0.00000000
  -2.34940384  2.82020000  2.95390516
   2.05241870  2.82020000  6.25206242
  -0.23759359  1.34579944  1.79050288
   0.23303359  1.34579944  4.74179512
   0.23303359  4.29460056  4.74179512
  -0.23759359  4.29460056  1.79050288
   2.34484384  2.82020000  3.57839284
  -2.05697870  2.82020000  0.28023558
 


--------------------------------------------------------------------------------------------------------


 k-point  1 :   0.0000 0.0000 0.0000  plane waves:    1831
 k-point  2 :   0.1429 0.0000 0.0000  plane waves:    1835
 k-point  3 :   0.2857 0.0000 0.0000  plane waves:    1843
 k-point  4 :   0.4286 0.0000 0.0000  plane waves:    1863
 k-point  5 :   0.1429 0.1429 0.0000  plane waves:    1838
 k-point  6 :   0.2857 0.1429 0.0000  plane waves:    1845
 k-point  7 :   0.4286 0.1429 0.0000  plane waves:    1853
 k-point  8 :  -0.4286 0.1429 0.0000  plane waves:    1843
 k-point  9 :  -0.2857 0.1429 0.0000  plane waves:    1842
 k-point 10 :  -0.1429 0.1429 0.0000  plane waves:    1828
 k-point 11 :   0.2857 0.2857 0.0000  plane waves:    1840
 k-point 12 :   0.4286 0.2857 0.0000  plane waves:    1845
 k-point 13 :  -0.4286 0.2857 0.0000  plane waves:    1834
 k-point 14 :  -0.2857 0.2857 0.0000  plane waves:    1840
 k-point 15 :   0.4286 0.4286 0.0000  plane waves:    1834
 k-point 16 :  -0.4286 0.4286 0.0000  plane waves:    1838
 k-point 17 :   0.0000 0.0000 0.2000  plane waves:    1835
 k-point 18 :   0.1429 0.0000 0.2000  plane waves:    1838
 k-point 19 :   0.2857 0.0000 0.2000  plane waves:    1842
 k-point 20 :   0.4286 0.0000 0.2000  plane waves:    1844
 k-point 21 :  -0.4286 0.0000 0.2000  plane waves:    1846
 k-point 22 :  -0.2857 0.0000 0.2000  plane waves:    1842
 k-point 23 :  -0.1429 0.0000 0.2000  plane waves:    1838
 k-point 24 :   0.1429 0.1429 0.2000  plane waves:    1835
 k-point 25 :   0.2857 0.1429 0.2000  plane waves:    1841
 k-point 26 :   0.4286 0.1429 0.2000  plane waves:    1840
 k-point 27 :  -0.4286 0.1429 0.2000  plane waves:    1845
 k-point 28 :  -0.2857 0.1429 0.2000  plane waves:    1834
 k-point 29 :  -0.1429 0.1429 0.2000  plane waves:    1832
 k-point 30 :   0.1429 0.2857 0.2000  plane waves:    1837
 k-point 31 :   0.2857 0.2857 0.2000  plane waves:    1844
 k-point 32 :   0.4286 0.2857 0.2000  plane waves:    1845
 k-point 33 :  -0.4286 0.2857 0.2000  plane waves:    1845
 k-point 34 :  -0.2857 0.2857 0.2000  plane waves:    1839
 k-point 35 :   0.1429 0.4286 0.2000  plane waves:    1839
 k-point 36 :   0.2857 0.4286 0.2000  plane waves:    1844
 k-point 37 :   0.4286 0.4286 0.2000  plane waves:    1838
 k-point 38 :  -0.4286 0.4286 0.2000  plane waves:    1831
 k-point 39 :   0.1429-0.4286 0.2000  plane waves:    1844
 k-point 40 :   0.2857-0.4286 0.2000  plane waves:    1844
 k-point 41 :   0.4286-0.4286 0.2000  plane waves:    1828
 k-point 42 :   0.1429-0.2857 0.2000  plane waves:    1835
 k-point 43 :   0.2857-0.2857 0.2000  plane waves:    1839
 k-point 44 :   0.1429-0.1429 0.2000  plane waves:    1832
 k-point 45 :   0.0000 0.0000 0.4000  plane waves:    1834
 k-point 46 :   0.1429 0.0000 0.4000  plane waves:    1841
 k-point 47 :   0.2857 0.0000 0.4000  plane waves:    1843
 k-point 48 :   0.4286 0.0000 0.4000  plane waves:    1845
 k-point 49 :  -0.4286 0.0000 0.4000  plane waves:    1845
 k-point 50 :  -0.2857 0.0000 0.4000  plane waves:    1844
 k-point 51 :  -0.1429 0.0000 0.4000  plane waves:    1842
 k-point 52 :   0.1429 0.1429 0.4000  plane waves:    1837
 k-point 53 :   0.2857 0.1429 0.4000  plane waves:    1837
 k-point 54 :   0.4286 0.1429 0.4000  plane waves:    1856
 k-point 55 :  -0.4286 0.1429 0.4000  plane waves:    1849
 k-point 56 :  -0.2857 0.1429 0.4000  plane waves:    1835
 k-point 57 :  -0.1429 0.1429 0.4000  plane waves:    1836
 k-point 58 :   0.1429 0.2857 0.4000  plane waves:    1839
 k-point 59 :   0.2857 0.2857 0.4000  plane waves:    1839
 k-point 60 :   0.4286 0.2857 0.4000  plane waves:    1847
 k-point 61 :  -0.4286 0.2857 0.4000  plane waves:    1845
 k-point 62 :  -0.2857 0.2857 0.4000  plane waves:    1832
 k-point 63 :   0.1429 0.4286 0.4000  plane waves:    1855
 k-point 64 :   0.2857 0.4286 0.4000  plane waves:    1847
 k-point 65 :   0.4286 0.4286 0.4000  plane waves:    1851
 k-point 66 :  -0.4286 0.4286 0.4000  plane waves:    1840
 k-point 67 :   0.1429-0.4286 0.4000  plane waves:    1847
 k-point 68 :   0.2857-0.4286 0.4000  plane waves:    1846
 k-point 69 :   0.4286-0.4286 0.4000  plane waves:    1839
 k-point 70 :   0.1429-0.2857 0.4000  plane waves:    1834
 k-point 71 :   0.2857-0.2857 0.4000  plane waves:    1832
 k-point 72 :   0.1429-0.1429 0.4000  plane waves:    1840

 maximum and minimum number of plane-waves per node :       483      434

 maximum number of plane-waves:      1863
 maximum index in each direction: 
   IXMAX=    7   IYMAX=    7   IZMAX=    9
   IXMIN=   -7   IYMIN=   -7   IZMIN=   -9

 WARNING: aliasing errors must be expected set NGX to  30 to avoid them
 WARNING: aliasing errors must be expected set NGY to  30 to avoid them
 WARNING: aliasing errors must be expected set NGZ to  38 to avoid them
 aliasing errors are usually negligible using standard VASP settings
 and one can safely disregard these warnings

 parallel 3D FFT for wavefunctions:
    minimum data exchange during FFTs selected (reduces bandwidth)
 parallel 3D FFT for charge:
    minimum data exchange during FFTs selected (reduces bandwidth)


 total amount of memory used by VASP on root node    78005. kBytes
========================================================================

   base      :      30000. kBytes
   nonl-proj :      14583. kBytes
   fftplans  :        307. kBytes
   grid      :        766. kBytes
   one-center:         93. kBytes
   wavefun   :      32256. kBytes
 
 Broyden mixing: mesh for mixing (old mesh)
   NGX = 15   NGY = 15   NGZ = 19
  (NGX  = 30   NGY  = 30   NGZ  = 40)
  gives a total of   4275 points

 initial charge density was supplied:
 charge density of overlapping atoms calculated
 number of electron      79.0000000 magnetization      15.0000000
 keeping initial charge density in first step


--------------------------------------------------------------------------------------------------------


 Maximum index for augmentation-charges          204 (set IRDMAX)


--------------------------------------------------------------------------------------------------------


 First call to EWALD:  gamma=   0.329
 Maximum number of real-space cells 3x 3x 2
 Maximum number of reciprocal cells 3x 3x 3

 FEWALD executed in parallel
    FEWALD:  cpu time    0.00: real time    0.00


----------------------------------------- Iteration    1(   1)  ---------------------------------------


    POTLOK:  cpu time    0.02: real time    0.02
atom =   1  type =  1  l = 2
 
 onsite density matrix
 
spin component  1
 
  0.8044  0.0000  0.0000  0.0000  0.0000
  0.0000  0.8044  0.0000  0.0000  0.0000
  0.0000  0.0000  0.8044  0.0000  0.0000
  0.0000  0.0000  0.0000  0.8044  0.0000
  0.0000  0.0000  0.0000  0.0000  0.8044
 
spin component  2
 
  0.0731  0.0000  0.0000  0.0000  0.0000
  0.0000  0.0731  0.0000  0.0000  0.0000
  0.0000  0.0000  0.0731  0.0000  0.0000
  0.0000  0.0000  0.0000  0.0731  0.0000
  0.0000  0.0000  0.0000  0.0000  0.0731
 
 occupancies and eigenvectors
 
  o =  0.0731  v =  0.0000  0.0000  0.0000  0.0000  0.0000  1.0000  0.0000  0.0000  0.0000  0.0000      0.0000  0.0000  0.0000  0.0000  0.0000  0.0000  0.0000  0.0000  0.0000  0.0000
  o =  0.0731  v =  0.0000  0.0000  0.0000  0.0000  0.0000  0.0000  1.0000  0.0000  0.0000  0.0000      0.0000  0.0000  0.0000  0.0000  0.0000  0.0000  0.0000  0.0000  0.0000  0.0000
  o =  0.0731  v =  0.0000  0.0000  0.0000  0.0000  0.0000  0.0000  0.0000  1.0000  0.0000  0.0000      0.0000  0.0000  0.0000  0.0000  0.0000  0.0000  0.0000  0.0000  0.0000  0.0000
  o =  0.0731  v =  0.0000  0.0000  0.0000  0.0000  0.0000  0.0000  0.0000  0.0000  1.0000  0.0000      0.0000  0.0000  0.0000  0.0000  0.0000  0.0000  0.0000  0.0000  0.0000  0.0000
  o =  0.0731  v =  0.0000  0.0000  0.0000  0.0000  0.0000  0.0000  0.0000  0.0000  0.0000  1.0000      0.0000  0.0000  0.0000  0.0000  0.0000  0.0000  0.0000  0.0000  0.0000  0.0000
  o =  0.8044  v =  1.0000  0.0000  0.0000  0.0000  0.0000  0.0000  0.0000  0.0000  0.0000  0.0000      0.0000  0.0000  0.0000  0.0000  0.0000  0.0000  0.0000  0.0000  0.0000  0.0000
  o =  0.8044  v =  0.0000  1.0000  0.0000  0.0000  0.0000  0.0000  0.0000  0.0000  0.0000  0.0000      0.0000  0.0000  0.0000  0.0000  0.0000  0.0000  0.0000  0.0000  0.0000  0.0000
  o =  0.8044  v =  0.0000  0.0000  1.0000  0.0000  0.0000  0.0000  0.0000  0.0000  0.0000  0.0000      0.0000  0.0000  0.0000  0.0000  0.0000  0.0000  0.0000  0.0000  0.0000  0.0000
  o =  0.8044  v =  0.0000  0.0000  0.0000  1.0000  0.0000  0.0000  0.0000  0.0000  0.0000  0.0000      0.0000  0.0000  0.0000  0.0000  0.0000  0.0000  0.0000  0.0000  0.0000  0.0000
  o =  0.8044  v =  0.0000  0.0000  0.0000  0.0000  1.0000  0.0000  0.0000  0.0000  0.0000  0.0000      0.0000  0.0000  0.0000  0.0000  0.0000  0.0000  0.0000  0.0000  0.0000  0.0000
atom =   2  type =  1  l = 2
 
 onsite density matrix
 
spin component  1
 
  0.8044  0.0000  0.0000  0.0000  0.0000
  0.0000  0.8044  0.0000  0.0000  0.0000
  0.0000  0.0000  0.8044  0.0000  0.0000
  0.0000  0.0000  0.0000  0.8044  0.0000
  0.0000  0.0000  0.0000  0.0000  0.8044
 
spin component  2
 
  0.0731  0.0000  0.0000  0.0000  0.0000
  0.0000  0.0731  0.0000  0.0000  0.0000
  0.0000  0.0000  0.0731  0.0000  0.0000
  0.0000  0.0000  0.0000  0.0731  0.0000
  0.0000  0.0000  0.0000  0.0000  0.0731
 
 occupancies and eigenvectors
 
  o =  0.0731  v =  0.0000  0.0000  0.0000  0.0000  0.0000  1.0000  0.0000  0.0000  0.0000  0.0000      0.0000  0.0000  0.0000  0.0000  0.0000  0.0000  0.0000  0.0000  0.0000  0.0000
  o =  0.0731  v =  0.0000  0.0000  0.0000  0.0000  0.0000  0.0000  1.0000  0.0000  0.0000  0.0000      0.0000  0.0000  0.0000  0.0000  0.0000  0.0000  0.0000  0.0000  0.0000  0.0000
  o =  0.0731  v =  0.0000  0.0000  0.0000  0.0000  0.0000  0.0000  0.0000  1.0000  0.0000  0.0000      0.0000  0.0000  0.0000  0.0000  0.0000  0.0000  0.0000  0.0000  0.0000  0.0000
  o =  0.0731  v =  0.0000  0.0000  0.0000  0.0000  0.0000  0.0000  0.0000  0.0000  1.0000  0.0000      0.0000  0.0000  0.0000  0.0000  0.0000  0.0000  0.0000  0.0000  0.0000  0.0000
  o =  0.0731  v =  0.0000  0.0000  0.0000  0.0000  0.0000  0.0000  0.0000  0.0000  0.0000  1.0000      0.0000  0.0000  0.0000  0.0000  0.0000  0.0000  0.0000  0.0000  0.0000  0.0000
  o =  0.8044  v =  1.0000  0.0000  0.0000  0.0000  0.0000  0.0000  0.0000  0.0000  0.0000  0.0000      0.0000  0.0000  0.0000  0.0000  0.0000  0.0000  0.0000  0.0000  0.0000  0.0000
  o =  0.8044  v =  0.0000  1.0000  0.0000  0.0000  0.0000  0.0000  0.0000  0.0000  0.0000  0.0000      0.0000  0.0000  0.0000  0.0000  0.0000  0.0000  0.0000  0.0000  0.0000  0.0000
  o =  0.8044  v =  0.0000  0.0000  1.0000  0.0000  0.0000  0.0000  0.0000  0.0000  0.0000  0.0000      0.0000  0.0000  0.0000  0.0000  0.0000  0.0000  0.0000  0.0000  0.0000  0.0000
  o =  0.8044  v =  0.0000  0.0000  0.0000  1.0000  0.0000  0.0000  0.0000  0.0000  0.0000  0.0000      0.0000  0.0000  0.0000  0.0000  0.0000  0.0000  0.0000  0.0000  0.0000  0.0000
  o =  0.8044  v =  0.0000  0.0000  0.0000  0.0000  1.0000  0.0000  0.0000  0.0000  0.0000  0.0000      0.0000  0.0000  0.0000  0.0000  0.0000  0.0000  0.0000  0.0000  0.0000  0.0000
atom =   3  type =  1  l = 2
 
 onsite density matrix
 
spin component  1
 
  0.8044  0.0000  0.0000  0.0000  0.0000
  0.0000  0.8044  0.0000  0.0000  0.0000
  0.0000  0.0000  0.8044  0.0000  0.0000
  0.0000  0.0000  0.0000  0.8044  0.0000
  0.0000  0.0000  0.0000  0.0000  0.8044
 
spin component  2
 
  0.0731  0.0000  0.0000  0.0000  0.0000
  0.0000  0.0731  0.0000  0.0000  0.0000
  0.0000  0.0000  0.0731  0.0000  0.0000
  0.0000  0.0000  0.0000  0.0731  0.0000
  0.0000  0.0000  0.0000  0.0000  0.0731
 
 occupancies and eigenvectors
 
  o =  0.0731  v =  0.0000  0.0000  0.0000  0.0000  0.0000  1.0000  0.0000  0.0000  0.0000  0.0000      0.0000  0.0000  0.0000  0.0000  0.0000  0.0000  0.0000  0.0000  0.0000  0.0000
  o =  0.0731  v =  0.0000  0.0000  0.0000  0.0000  0.0000  0.0000  1.0000  0.0000  0.0000  0.0000      0.0000  0.0000  0.0000  0.0000  0.0000  0.0000  0.0000  0.0000  0.0000  0.0000
  o =  0.0731  v =  0.0000  0.0000  0.0000  0.0000  0.0000  0.0000  0.0000  1.0000  0.0000  0.0000      0.0000  0.0000  0.0000  0.0000  0.0000  0.0000  0.0000  0.0000  0.0000  0.0000
  o =  0.0731  v =  0.0000  0.0000  0.0000  0.0000  0.0000  0.0000  0.0000  0.0000  1.0000  0.0000      0.0000  0.0000  0.0000  0.0000  0.0000  0.0000  0.0000  0.0000  0.0000  0.0000
  o =  0.0731  v =  0.0000  0.0000  0.0000  0.0000  0.0000  0.0000  0.0000  0.0000  0.0000  1.0000      0.0000  0.0000  0.0000  0.0000  0.0000  0.0000  0.0000  0.0000  0.0000  0.0000
  o =  0.8044  v =  1.0000  0.0000  0.0000  0.0000  0.0000  0.0000  0.0000  0.0000  0.0000  0.0000      0.0000  0.0000  0.0000  0.0000  0.0000  0.0000  0.0000  0.0000  0.0000  0.0000
  o =  0.8044  v =  0.0000  1.0000  0.0000  0.0000  0.0000  0.0000  0.0000  0.0000  0.0000  0.0000      0.0000  0.0000  0.0000  0.0000  0.0000  0.0000  0.0000  0.0000  0.0000  0.0000
  o =  0.8044  v =  0.0000  0.0000  1.0000  0.0000  0.0000  0.0000  0.0000  0.0000  0.0000  0.0000      0.0000  0.0000  0.0000  0.0000  0.0000  0.0000  0.0000  0.0000  0.0000  0.0000
  o =  0.8044  v =  0.0000  0.0000  0.0000  1.0000  0.0000  0.0000  0.0000  0.0000  0.0000  0.0000      0.0000  0.0000  0.0000  0.0000  0.0000  0.0000  0.0000  0.0000  0.0000  0.0000
  o =  0.8044  v =  0.0000  0.0000  0.0000  0.0000  1.0000  0.0000  0.0000  0.0000  0.0000  0.0000      0.0000  0.0000  0.0000  0.0000  0.0000  0.0000  0.0000  0.0000  0.0000  0.0000
    SETDIJ:  cpu time    0.03: real time    0.03
     EDDAV:  cpu time   15.65: real time   15.67
       DOS:  cpu time    0.03: real time    0.03
    --------------------------------------------
      LOOP:  cpu time   15.73: real time   15.75

 eigenvalue-minimisations  : 16168
 total energy-change (2. order) : 0.8939544E+03  (-0.2433461E+04)
 number of electron      79.0000000 magnetization      15.0000000
 augmentation part       79.0000000 magnetization      15.0000000

 Free energy of the ion-electron system (eV)
  ---------------------------------------------------
  alpha Z        PSCENC =       233.96819540
  Ewald energy   TEWEN  =     -4215.50445984
  -1/2 Hartree   DENC   =     -1753.41851298
  -exchange  EXHF       =         0.00000000
  -V(xc)+E(xc)   XCENC  =       210.02508955
  PAW double counting   =      3857.48201359    -3787.14566831
  entropy T*S    EENTRO =        -0.07839310
  eigenvalues    EBANDS =       491.43886881
  atomic energy  EATOM  =      5857.18730348
  ---------------------------------------------------
  free energy    TOTEN  =       893.95443659 eV

  energy without entropy =      894.03282970  energy(sigma->0) =      893.99363315


--------------------------------------------------------------------------------------------------------




----------------------------------------- Iteration    1(   2)  ---------------------------------------


     EDDAV:  cpu time   16.56: real time   16.68
       DOS:  cpu time    0.04: real time    0.04
    --------------------------------------------
      LOOP:  cpu time   16.60: real time   16.72

 eigenvalue-minimisations  : 17264
 total energy-change (2. order) :-0.8091245E+03  (-0.7367254E+03)
 number of electron      79.0000000 magnetization      15.0000000
 augmentation part       79.0000000 magnetization      15.0000000

 Free energy of the ion-electron system (eV)
  ---------------------------------------------------
  alpha Z        PSCENC =       233.96819540
  Ewald energy   TEWEN  =     -4215.50445984
  -1/2 Hartree   DENC   =     -1753.41851298
  -exchange  EXHF       =         0.00000000
  -V(xc)+E(xc)   XCENC  =       210.02508955
  PAW double counting   =      3857.48201359    -3787.14566831
  entropy T*S    EENTRO =        -0.07326301
  eigenvalues    EBANDS =      -317.69076709
  atomic energy  EATOM  =      5857.18730348
  ---------------------------------------------------
  free energy    TOTEN  =        84.82993078 eV

  energy without entropy =       84.90319379  energy(sigma->0) =       84.86656229


--------------------------------------------------------------------------------------------------------




----------------------------------------- Iteration    1(   3)  ---------------------------------------


     EDDAV:  cpu time   18.58: real time   18.61
       DOS:  cpu time    0.04: real time    0.04
    --------------------------------------------
      LOOP:  cpu time   18.63: real time   18.66

 eigenvalue-minimisations  : 19944
 total energy-change (2. order) :-0.1759252E+03  (-0.1652479E+03)
 number of electron      79.0000000 magnetization      15.0000000
 augmentation part       79.0000000 magnetization      15.0000000

 Free energy of the ion-electron system (eV)
  ---------------------------------------------------
  alpha Z        PSCENC =       233.96819540
  Ewald energy   TEWEN  =     -4215.50445984
  -1/2 Hartree   DENC   =     -1753.41851298
  -exchange  EXHF       =         0.00000000
  -V(xc)+E(xc)   XCENC  =       210.02508955
  PAW double counting   =      3857.48201359    -3787.14566831
  entropy T*S    EENTRO =        -0.11503243
  eigenvalues    EBANDS =      -493.57422005
  atomic energy  EATOM  =      5857.18730348
  ---------------------------------------------------
  free energy    TOTEN  =       -91.09529160 eV

  energy without entropy =      -90.98025916  energy(sigma->0) =      -91.03777538


--------------------------------------------------------------------------------------------------------




----------------------------------------- Iteration    1(   4)  ---------------------------------------


     EDDAV:  cpu time   21.03: real time   21.08
       DOS:  cpu time    0.04: real time    0.04
    --------------------------------------------
      LOOP:  cpu time   21.08: real time   21.13

 eigenvalue-minimisations  : 22880
 total energy-change (2. order) :-0.1075206E+02  (-0.1067467E+02)
 number of electron      79.0000000 magnetization      15.0000000
 augmentation part       79.0000000 magnetization      15.0000000

 Free energy of the ion-electron system (eV)
  ---------------------------------------------------
  alpha Z        PSCENC =       233.96819540
  Ewald energy   TEWEN  =     -4215.50445984
  -1/2 Hartree   DENC   =     -1753.41851298
  -exchange  EXHF       =         0.00000000
  -V(xc)+E(xc)   XCENC  =       210.02508955
  PAW double counting   =      3857.48201359    -3787.14566831
  entropy T*S    EENTRO =        -0.12175175
  eigenvalues    EBANDS =      -504.31956453
  atomic energy  EATOM  =      5857.18730348
  ---------------------------------------------------
  free energy    TOTEN  =      -101.84735539 eV

  energy without entropy =     -101.72560364  energy(sigma->0) =     -101.78647951


--------------------------------------------------------------------------------------------------------




----------------------------------------- Iteration    1(   5)  ---------------------------------------


     EDDAV:  cpu time   21.45: real time   21.52
       DOS:  cpu time    0.04: real time    0.04
    CHARGE:  cpu time    0.51: real time    0.51
    MIXING:  cpu time    0.00: real time    0.00
    --------------------------------------------
      LOOP:  cpu time   22.01: real time   22.08

 eigenvalue-minimisations  : 23400
 total energy-change (2. order) :-0.2554261E+00  (-0.2551362E+00)
 number of electron      78.9999824 magnetization       7.3108884
 augmentation part       17.5235146 magnetization       5.3783227

 Broyden mixing:
  rms(total) = 0.36957E+01    rms(broyden)= 0.36945E+01
  rms(prec ) = 0.59006E+01
  weight for this iteration     100.00

 Free energy of the ion-electron system (eV)
  ---------------------------------------------------
  alpha Z        PSCENC =       233.96819540
  Ewald energy   TEWEN  =     -4215.50445984
  -1/2 Hartree   DENC   =     -1753.41851298
  -exchange  EXHF       =         0.00000000
  -V(xc)+E(xc)   XCENC  =       210.02508955
  PAW double counting   =      3857.48201359    -3787.14566831
  entropy T*S    EENTRO =        -0.12245074
  eigenvalues    EBANDS =      -504.57429167
  atomic energy  EATOM  =      5857.18730348
  ---------------------------------------------------
  free energy    TOTEN  =      -102.10278152 eV

  energy without entropy =     -101.98033078  energy(sigma->0) =     -102.04155615


--------------------------------------------------------------------------------------------------------




----------------------------------------- Iteration    1(   6)  ---------------------------------------


    POTLOK:  cpu time    0.69: real time    1.00
atom =   1  type =  1  l = 2
 
 onsite density matrix
 
spin component  1
 
  0.6879 -0.0769  0.0000  0.0000  0.0000
 -0.0769  0.3095  0.0000  0.0000  0.0000
  0.0000  0.0000  0.7248 -0.0863  0.1965
  0.0000  0.0000 -0.0863  0.7229  0.1181
  0.0000  0.0000  0.1965  0.1181  0.4659
 
spin component  2
 
  0.1808  0.0176  0.0000  0.0000  0.0000
  0.0176  0.2445  0.0000  0.0000  0.0000
  0.0000  0.0000  0.1771  0.0194 -0.0577
  0.0000  0.0000  0.0194  0.1708 -0.0275
  0.0000  0.0000 -0.0577 -0.0275  0.2613
 
 occupancies and eigenvectors
 
  o =  0.1464  v =  0.0000  0.0000  0.0000  0.0000  0.0000  0.0000  0.0000 -0.8837  0.2770 -0.3772      0.0000  0.0000  0.0000  0.0000  0.0000  0.0000  0.0000  0.0000  0.0000  0.0000
  o =  0.1636  v =  0.0000  0.0000  0.0000  0.0000  0.0000  0.0000  0.0000  0.1433  0.9274  0.3454      0.0000  0.0000  0.0000  0.0000  0.0000  0.0000  0.0000  0.0000  0.0000  0.0000
  o =  0.1763  v =  0.0000  0.0000  0.0000  0.0000  0.0000 -0.9682  0.2503  0.0000  0.0000  0.0000      0.0000  0.0000  0.0000  0.0000  0.0000  0.0000  0.0000  0.0000  0.0000  0.0000
  o =  0.2491  v =  0.0000  0.0000  0.0000  0.0000  0.0000  0.2503  0.9682  0.0000  0.0000  0.0000      0.0000  0.0000  0.0000  0.0000  0.0000  0.0000  0.0000  0.0000  0.0000  0.0000
  o =  0.2945  v = -0.1918 -0.9814  0.0000  0.0000  0.0000  0.0000  0.0000  0.0000  0.0000  0.0000      0.0000  0.0000  0.0000  0.0000  0.0000  0.0000  0.0000  0.0000  0.0000  0.0000
  o =  0.2992  v =  0.0000  0.0000  0.0000  0.0000  0.0000  0.0000  0.0000 -0.4455 -0.2513  0.8593      0.0000  0.0000  0.0000  0.0000  0.0000  0.0000  0.0000  0.0000  0.0000  0.0000
  o =  0.3092  v =  0.0000  0.0000 -0.4586 -0.3311  0.8246  0.0000  0.0000  0.0000  0.0000  0.0000      0.0000  0.0000  0.0000  0.0000  0.0000  0.0000  0.0000  0.0000  0.0000  0.0000
  o =  0.7029  v = -0.9814  0.1918  0.0000  0.0000  0.0000  0.0000  0.0000  0.0000  0.0000  0.0000      0.0000  0.0000  0.0000  0.0000  0.0000  0.0000  0.0000  0.0000  0.0000  0.0000
  o =  0.7680  v =  0.0000  0.0000 -0.1014 -0.9024 -0.4187  0.0000  0.0000  0.0000  0.0000  0.0000      0.0000  0.0000  0.0000  0.0000  0.0000  0.0000  0.0000  0.0000  0.0000  0.0000
  o =  0.8364  v =  0.0000  0.0000  0.8828 -0.2757  0.3803  0.0000  0.0000  0.0000  0.0000  0.0000      0.0000  0.0000  0.0000  0.0000  0.0000  0.0000  0.0000  0.0000  0.0000  0.0000
atom =   2  type =  1  l = 2
 
 onsite density matrix
 
spin component  1
 
  0.3210 -0.0419  0.0000  0.0000  0.0000
 -0.0419  0.5675  0.0000  0.0000  0.0000
  0.0000  0.0000  0.4101 -0.0133 -0.0878
  0.0000  0.0000 -0.0133  0.3701  0.0182
  0.0000  0.0000 -0.0878  0.0182  0.4462
 
spin component  2
 
  0.3968  0.0151  0.0000  0.0000  0.0000
  0.0151  0.2680  0.0000  0.0000  0.0000
  0.0000  0.0000  0.3508  0.0261  0.0582
  0.0000  0.0000  0.0261  0.4225 -0.0136
  0.0000  0.0000  0.0582 -0.0136  0.3390
 
 occupancies and eigenvectors
 
  o =  0.2662  v =  0.0000  0.0000  0.0000  0.0000  0.0000 -0.1150  0.9934  0.0000  0.0000  0.0000      0.0000  0.0000  0.0000  0.0000  0.0000  0.0000  0.0000  0.0000  0.0000  0.0000
  o =  0.2810  v =  0.0000  0.0000  0.0000  0.0000  0.0000  0.0000  0.0000 -0.6697  0.1924  0.7173      0.0000  0.0000  0.0000  0.0000  0.0000  0.0000  0.0000  0.0000  0.0000  0.0000
  o =  0.3140  v = -0.9866 -0.1633  0.0000  0.0000  0.0000  0.0000  0.0000  0.0000  0.0000  0.0000      0.0000  0.0000  0.0000  0.0000  0.0000  0.0000  0.0000  0.0000  0.0000  0.0000
  o =  0.3385  v =  0.0000  0.0000 -0.7708  0.0428 -0.6356  0.0000  0.0000  0.0000  0.0000  0.0000      0.0000  0.0000  0.0000  0.0000  0.0000  0.0000  0.0000  0.0000  0.0000  0.0000
  o =  0.3667  v =  0.0000  0.0000  0.1266  0.9881 -0.0870  0.0000  0.0000  0.0000  0.0000  0.0000      0.0000  0.0000  0.0000  0.0000  0.0000  0.0000  0.0000  0.0000  0.0000  0.0000
  o =  0.3985  v =  0.0000  0.0000  0.0000  0.0000  0.0000 -0.9934 -0.1150  0.0000  0.0000  0.0000      0.0000  0.0000  0.0000  0.0000  0.0000  0.0000  0.0000  0.0000  0.0000  0.0000
  o =  0.3999  v =  0.0000  0.0000  0.0000  0.0000  0.0000  0.0000  0.0000 -0.6451  0.3279 -0.6902      0.0000  0.0000  0.0000  0.0000  0.0000  0.0000  0.0000  0.0000  0.0000  0.0000
  o =  0.4315  v =  0.0000  0.0000  0.0000  0.0000  0.0000  0.0000  0.0000 -0.3680 -0.9249 -0.0954      0.0000  0.0000  0.0000  0.0000  0.0000  0.0000  0.0000  0.0000  0.0000  0.0000
  o =  0.5211  v =  0.0000  0.0000 -0.6243  0.1475  0.7671  0.0000  0.0000  0.0000  0.0000  0.0000      0.0000  0.0000  0.0000  0.0000  0.0000  0.0000  0.0000  0.0000  0.0000  0.0000
  o =  0.5744  v =  0.1633 -0.9866  0.0000  0.0000  0.0000  0.0000  0.0000  0.0000  0.0000  0.0000      0.0000  0.0000  0.0000  0.0000  0.0000  0.0000  0.0000  0.0000  0.0000  0.0000
atom =   3  type =  1  l = 2
 
 onsite density matrix
 
spin component  1
 
  0.3210 -0.0419  0.0000  0.0000  0.0000
 -0.0419  0.5675  0.0000  0.0000  0.0000
  0.0000  0.0000  0.4101 -0.0133 -0.0878
  0.0000  0.0000 -0.0133  0.3701  0.0182
  0.0000  0.0000 -0.0878  0.0182  0.4462
 
spin component  2
 
  0.3968  0.0151  0.0000  0.0000  0.0000
  0.0151  0.2680  0.0000  0.0000  0.0000
  0.0000  0.0000  0.3508  0.0261  0.0582
  0.0000  0.0000  0.0261  0.4225 -0.0136
  0.0000  0.0000  0.0582 -0.0136  0.3390
 
 occupancies and eigenvectors
 
  o =  0.2662  v =  0.0000  0.0000  0.0000  0.0000  0.0000 -0.1150  0.9934  0.0000  0.0000  0.0000      0.0000  0.0000  0.0000  0.0000  0.0000  0.0000  0.0000  0.0000  0.0000  0.0000
  o =  0.2810  v =  0.0000  0.0000  0.0000  0.0000  0.0000  0.0000  0.0000 -0.6697  0.1924  0.7173      0.0000  0.0000  0.0000  0.0000  0.0000  0.0000  0.0000  0.0000  0.0000  0.0000
  o =  0.3140  v = -0.9866 -0.1633  0.0000  0.0000  0.0000  0.0000  0.0000  0.0000  0.0000  0.0000      0.0000  0.0000  0.0000  0.0000  0.0000  0.0000  0.0000  0.0000  0.0000  0.0000
  o =  0.3385  v =  0.0000  0.0000 -0.7708  0.0428 -0.6356  0.0000  0.0000  0.0000  0.0000  0.0000      0.0000  0.0000  0.0000  0.0000  0.0000  0.0000  0.0000  0.0000  0.0000  0.0000
  o =  0.3667  v =  0.0000  0.0000  0.1266  0.9881 -0.0870  0.0000  0.0000  0.0000  0.0000  0.0000      0.0000  0.0000  0.0000  0.0000  0.0000  0.0000  0.0000  0.0000  0.0000  0.0000
  o =  0.3985  v =  0.0000  0.0000  0.0000  0.0000  0.0000 -0.9934 -0.1150  0.0000  0.0000  0.0000      0.0000  0.0000  0.0000  0.0000  0.0000  0.0000  0.0000  0.0000  0.0000  0.0000
  o =  0.3999  v =  0.0000  0.0000  0.0000  0.0000  0.0000  0.0000  0.0000 -0.6451  0.3279 -0.6902      0.0000  0.0000  0.0000  0.0000  0.0000  0.0000  0.0000  0.0000  0.0000  0.0000
  o =  0.4315  v =  0.0000  0.0000  0.0000  0.0000  0.0000  0.0000  0.0000 -0.3680 -0.9249 -0.0954      0.0000  0.0000  0.0000  0.0000  0.0000  0.0000  0.0000  0.0000  0.0000  0.0000
  o =  0.5211  v =  0.0000  0.0000 -0.6243  0.1475  0.7671  0.0000  0.0000  0.0000  0.0000  0.0000      0.0000  0.0000  0.0000  0.0000  0.0000  0.0000  0.0000  0.0000  0.0000  0.0000
  o =  0.5744  v =  0.1633 -0.9866  0.0000  0.0000  0.0000  0.0000  0.0000  0.0000  0.0000  0.0000      0.0000  0.0000  0.0000  0.0000  0.0000  0.0000  0.0000  0.0000  0.0000  0.0000
    SETDIJ:  cpu time    0.03: real time    0.03
    EDDIAG:  cpu time    2.25: real time    2.25
  RMM-DIIS:  cpu time   11.98: real time   11.99
    ORTHCH:  cpu time    0.47: real time    0.47
       DOS:  cpu time    0.04: real time    0.04
    CHARGE:  cpu time    0.53: real time    0.53
    MIXING:  cpu time    0.00: real time    0.00
    --------------------------------------------
      LOOP:  cpu time   15.99: real time   16.32

 eigenvalue-minimisations  : 19958
 total energy-change (2. order) : 0.4023119E+01  (-0.1814893E+02)
 number of electron      78.9999598 magnetization       6.3566696
 augmentation part       22.8872368 magnetization       5.0777821

 Broyden mixing:
  rms(total) = 0.36789E+01    rms(broyden)= 0.36774E+01
  rms(prec ) = 0.66272E+01
  weight for this iteration     100.00

 eigenvalues of (default mixing * dielectric matrix)
  average eigenvalue GAMMA=   0.5584
  0.5584

 Free energy of the ion-electron system (eV)
  ---------------------------------------------------
  alpha Z        PSCENC =       233.96819540
  Ewald energy   TEWEN  =     -4215.50445984
  -1/2 Hartree   DENC   =     -1840.67339537
  -exchange  EXHF       =         0.00000000
  -V(xc)+E(xc)   XCENC  =       213.48654716
  PAW double counting   =      4228.93716601    -4154.31770670
  entropy T*S    EENTRO =        -0.13348564
  eigenvalues    EBANDS =      -421.02982686
  atomic energy  EATOM  =      5857.18730348
  ---------------------------------------------------
  free energy    TOTEN  =       -98.07966235 eV

  energy without entropy =      -97.94617671  energy(sigma->0) =      -98.01291953


--------------------------------------------------------------------------------------------------------




----------------------------------------- Iteration    1(   7)  ---------------------------------------


    POTLOK:  cpu time    0.02: real time    0.02
atom =   1  type =  1  l = 2
 
 onsite density matrix
 
spin component  1
 
  0.7441 -0.0844  0.0000  0.0000  0.0000
 -0.0844  0.4288  0.0000  0.0000  0.0000
  0.0000  0.0000  0.7863 -0.0656  0.1529
  0.0000  0.0000 -0.0656  0.7563  0.1220
  0.0000  0.0000  0.1529  0.1220  0.5743
 
spin component  2
 
  0.0842  0.0459  0.0000  0.0000  0.0000
  0.0459  0.2755  0.0000  0.0000  0.0000
  0.0000  0.0000  0.0877  0.0476 -0.0959
  0.0000  0.0000  0.0476  0.1105 -0.0785
  0.0000  0.0000 -0.0959 -0.0785  0.2334
 
 occupancies and eigenvectors
 
  o =  0.0385  v =  0.0000  0.0000  0.0000  0.0000  0.0000  0.0000  0.0000 -0.9086  0.2021 -0.3656      0.0000  0.0000  0.0000  0.0000  0.0000  0.0000  0.0000  0.0000  0.0000  0.0000
  o =  0.0723  v =  0.0000  0.0000  0.0000  0.0000  0.0000  0.0000  0.0000  0.0190  0.8943  0.4470      0.0000  0.0000  0.0000  0.0000  0.0000  0.0000  0.0000  0.0000  0.0000  0.0000
  o =  0.0738  v =  0.0000  0.0000  0.0000  0.0000  0.0000 -0.9751  0.2219  0.0000  0.0000  0.0000      0.0000  0.0000  0.0000  0.0000  0.0000  0.0000  0.0000  0.0000  0.0000  0.0000
  o =  0.2859  v =  0.0000  0.0000  0.0000  0.0000  0.0000  0.2219  0.9751  0.0000  0.0000  0.0000      0.0000  0.0000  0.0000  0.0000  0.0000  0.0000  0.0000  0.0000  0.0000  0.0000
  o =  0.3208  v =  0.0000  0.0000  0.0000  0.0000  0.0000  0.0000  0.0000 -0.4173 -0.3992  0.8164      0.0000  0.0000  0.0000  0.0000  0.0000  0.0000  0.0000  0.0000  0.0000  0.0000
  o =  0.4076  v = -0.2432 -0.9700  0.0000  0.0000  0.0000  0.0000  0.0000  0.0000  0.0000  0.0000      0.0000  0.0000  0.0000  0.0000  0.0000  0.0000  0.0000  0.0000  0.0000  0.0000
  o =  0.4346  v =  0.0000  0.0000  0.4272  0.3955 -0.8131  0.0000  0.0000  0.0000  0.0000  0.0000      0.0000  0.0000  0.0000  0.0000  0.0000  0.0000  0.0000  0.0000  0.0000  0.0000
  o =  0.7652  v = -0.9700  0.2432  0.0000  0.0000  0.0000  0.0000  0.0000  0.0000  0.0000  0.0000      0.0000  0.0000  0.0000  0.0000  0.0000  0.0000  0.0000  0.0000  0.0000  0.0000
  o =  0.8159  v =  0.0000  0.0000 -0.1590  0.9181  0.3630  0.0000  0.0000  0.0000  0.0000  0.0000      0.0000  0.0000  0.0000  0.0000  0.0000  0.0000  0.0000  0.0000  0.0000  0.0000
  o =  0.8664  v =  0.0000  0.0000  0.8900 -0.0258  0.4551  0.0000  0.0000  0.0000  0.0000  0.0000      0.0000  0.0000  0.0000  0.0000  0.0000  0.0000  0.0000  0.0000  0.0000  0.0000
atom =   2  type =  1  l = 2
 
 onsite density matrix
 
spin component  1
 
  0.4665 -0.0364  0.0000  0.0000  0.0000
 -0.0364  0.6198  0.0000  0.0000  0.0000
  0.0000  0.0000  0.5381 -0.0198 -0.0687
  0.0000  0.0000 -0.0198  0.4976  0.0155
  0.0000  0.0000 -0.0687  0.0155  0.5449
 
spin component  2
 
  0.3617  0.0113  0.0000  0.0000  0.0000
  0.0113  0.3436  0.0000  0.0000  0.0000
  0.0000  0.0000  0.3379  0.0265  0.0279
  0.0000  0.0000  0.0265  0.4157 -0.0029
  0.0000  0.0000  0.0279 -0.0029  0.3624
 
 occupancies and eigenvectors
 
  o =  0.3140  v =  0.0000  0.0000  0.0000  0.0000  0.0000  0.0000  0.0000 -0.8367  0.2320  0.4961      0.0000  0.0000  0.0000  0.0000  0.0000  0.0000  0.0000  0.0000  0.0000  0.0000
  o =  0.3382  v =  0.0000  0.0000  0.0000  0.0000  0.0000 -0.4330  0.9014  0.0000  0.0000  0.0000      0.0000  0.0000  0.0000  0.0000  0.0000  0.0000  0.0000  0.0000  0.0000  0.0000
  o =  0.3671  v =  0.0000  0.0000  0.0000  0.0000  0.0000 -0.9014 -0.4330  0.0000  0.0000  0.0000      0.0000  0.0000  0.0000  0.0000  0.0000  0.0000  0.0000  0.0000  0.0000  0.0000
  o =  0.3776  v =  0.0000  0.0000  0.0000  0.0000  0.0000  0.0000  0.0000  0.4439 -0.2433  0.8624      0.0000  0.0000  0.0000  0.0000  0.0000  0.0000  0.0000  0.0000  0.0000  0.0000
  o =  0.4244  v =  0.0000  0.0000  0.0000  0.0000  0.0000  0.0000  0.0000 -0.3208 -0.9418 -0.1006      0.0000  0.0000  0.0000  0.0000  0.0000  0.0000  0.0000  0.0000  0.0000  0.0000
  o =  0.4583  v = -0.9756 -0.2197  0.0000  0.0000  0.0000  0.0000  0.0000  0.0000  0.0000  0.0000      0.0000  0.0000  0.0000  0.0000  0.0000  0.0000  0.0000  0.0000  0.0000  0.0000
  o =  0.4721  v =  0.0000  0.0000  0.7346  0.1703  0.6567  0.0000  0.0000  0.0000  0.0000  0.0000      0.0000  0.0000  0.0000  0.0000  0.0000  0.0000  0.0000  0.0000  0.0000  0.0000
  o =  0.4930  v =  0.0000  0.0000  0.0155  0.9635 -0.2672  0.0000  0.0000  0.0000  0.0000  0.0000      0.0000  0.0000  0.0000  0.0000  0.0000  0.0000  0.0000  0.0000  0.0000  0.0000
  o =  0.6155  v =  0.0000  0.0000 -0.6783  0.2065  0.7052  0.0000  0.0000  0.0000  0.0000  0.0000      0.0000  0.0000  0.0000  0.0000  0.0000  0.0000  0.0000  0.0000  0.0000  0.0000
  o =  0.6279  v =  0.2197 -0.9756  0.0000  0.0000  0.0000  0.0000  0.0000  0.0000  0.0000  0.0000      0.0000  0.0000  0.0000  0.0000  0.0000  0.0000  0.0000  0.0000  0.0000  0.0000
atom =   3  type =  1  l = 2
 
 onsite density matrix
 
spin component  1
 
  0.4665 -0.0364  0.0000  0.0000  0.0000
 -0.0364  0.6198  0.0000  0.0000  0.0000
  0.0000  0.0000  0.5381 -0.0198 -0.0687
  0.0000  0.0000 -0.0198  0.4976  0.0155
  0.0000  0.0000 -0.0687  0.0155  0.5449
 
spin component  2
 
  0.3617  0.0113  0.0000  0.0000  0.0000
  0.0113  0.3436  0.0000  0.0000  0.0000
  0.0000  0.0000  0.3379  0.0265  0.0279
  0.0000  0.0000  0.0265  0.4157 -0.0029
  0.0000  0.0000  0.0279 -0.0029  0.3624
 
 occupancies and eigenvectors
 
  o =  0.3140  v =  0.0000  0.0000  0.0000  0.0000  0.0000  0.0000  0.0000 -0.8367  0.2320  0.4961      0.0000  0.0000  0.0000  0.0000  0.0000  0.0000  0.0000  0.0000  0.0000  0.0000
  o =  0.3382  v =  0.0000  0.0000  0.0000  0.0000  0.0000 -0.4330  0.9014  0.0000  0.0000  0.0000      0.0000  0.0000  0.0000  0.0000  0.0000  0.0000  0.0000  0.0000  0.0000  0.0000
  o =  0.3671  v =  0.0000  0.0000  0.0000  0.0000  0.0000 -0.9014 -0.4330  0.0000  0.0000  0.0000      0.0000  0.0000  0.0000  0.0000  0.0000  0.0000  0.0000  0.0000  0.0000  0.0000
  o =  0.3776  v =  0.0000  0.0000  0.0000  0.0000  0.0000  0.0000  0.0000  0.4439 -0.2433  0.8624      0.0000  0.0000  0.0000  0.0000  0.0000  0.0000  0.0000  0.0000  0.0000  0.0000
  o =  0.4244  v =  0.0000  0.0000  0.0000  0.0000  0.0000  0.0000  0.0000 -0.3208 -0.9418 -0.1006      0.0000  0.0000  0.0000  0.0000  0.0000  0.0000  0.0000  0.0000  0.0000  0.0000
  o =  0.4583  v = -0.9756 -0.2197  0.0000  0.0000  0.0000  0.0000  0.0000  0.0000  0.0000  0.0000      0.0000  0.0000  0.0000  0.0000  0.0000  0.0000  0.0000  0.0000  0.0000  0.0000
  o =  0.4721  v =  0.0000  0.0000  0.7346  0.1703  0.6567  0.0000  0.0000  0.0000  0.0000  0.0000      0.0000  0.0000  0.0000  0.0000  0.0000  0.0000  0.0000  0.0000  0.0000  0.0000
  o =  0.4930  v =  0.0000  0.0000  0.0155  0.9635 -0.2672  0.0000  0.0000  0.0000  0.0000  0.0000      0.0000  0.0000  0.0000  0.0000  0.0000  0.0000  0.0000  0.0000  0.0000  0.0000
  o =  0.6155  v =  0.0000  0.0000 -0.6783  0.2065  0.7052  0.0000  0.0000  0.0000  0.0000  0.0000      0.0000  0.0000  0.0000  0.0000  0.0000  0.0000  0.0000  0.0000  0.0000  0.0000
  o =  0.6279  v =  0.2197 -0.9756  0.0000  0.0000  0.0000  0.0000  0.0000  0.0000  0.0000  0.0000      0.0000  0.0000  0.0000  0.0000  0.0000  0.0000  0.0000  0.0000  0.0000  0.0000
    SETDIJ:  cpu time    0.03: real time    0.03
    EDDIAG:  cpu time    2.24: real time    2.25
  RMM-DIIS:  cpu time   11.05: real time   11.18
    ORTHCH:  cpu time    0.47: real time    0.47
       DOS:  cpu time    0.04: real time    0.04
    CHARGE:  cpu time    0.51: real time    0.51
    MIXING:  cpu time    0.00: real time    0.00
    --------------------------------------------
      LOOP:  cpu time   14.36: real time   14.50

 eigenvalue-minimisations  : 18315
 total energy-change (2. order) : 0.1032289E+02  (-0.1971145E+01)
 number of electron      78.9999814 magnetization       5.8873811
 augmentation part       18.1687377 magnetization       4.3559413

 Broyden mixing:
  rms(total) = 0.23126E+01    rms(broyden)= 0.23112E+01
  rms(prec ) = 0.41920E+01
  weight for this iteration     100.00

 eigenvalues of (default mixing * dielectric matrix)
  average eigenvalue GAMMA=   0.4226
  0.6373  0.2078

 Free energy of the ion-electron system (eV)
  ---------------------------------------------------
  alpha Z        PSCENC =       233.96819540
  Ewald energy   TEWEN  =     -4215.50445984
  -1/2 Hartree   DENC   =     -1816.58127803
  -exchange  EXHF       =         0.00000000
  -V(xc)+E(xc)   XCENC  =       209.92737517
  PAW double counting   =      4264.43174953    -4196.34208603
  entropy T*S    EENTRO =        -0.02501212
  eigenvalues    EBANDS =      -424.81855960
  atomic energy  EATOM  =      5857.18730348
  ---------------------------------------------------
  free energy    TOTEN  =       -87.75677205 eV

  energy without entropy =      -87.73175992  energy(sigma->0) =      -87.74426599


--------------------------------------------------------------------------------------------------------




----------------------------------------- Iteration    1(   8)  ---------------------------------------


    POTLOK:  cpu time    0.02: real time    0.02
atom =   1  type =  1  l = 2
 
 onsite density matrix
 
spin component  1
 
  0.7761 -0.0208  0.0000  0.0000  0.0000
 -0.0208  0.7230  0.0000  0.0000  0.0000
  0.0000  0.0000  0.7706 -0.0324  0.0383
  0.0000  0.0000 -0.0324  0.7754  0.0448
  0.0000  0.0000  0.0383  0.0448  0.7082
 
spin component  2
 
  0.0307  0.0347  0.0000  0.0000  0.0000
  0.0347  0.2036  0.0000  0.0000  0.0000
  0.0000  0.0000  0.0545  0.0351 -0.0963
  0.0000  0.0000  0.0351  0.0481 -0.0635
  0.0000  0.0000 -0.0963 -0.0635  0.1669
 
 occupancies and eigenvectors
 
  o = -0.0008  v =  0.0000  0.0000  0.0000  0.0000  0.0000  0.0000  0.0000 -0.8585 -0.0469 -0.5107      0.0000  0.0000  0.0000  0.0000  0.0000  0.0000  0.0000  0.0000  0.0000  0.0000
  o =  0.0219  v =  0.0000  0.0000  0.0000  0.0000  0.0000  0.0000  0.0000 -0.2122  0.9390  0.2705      0.0000  0.0000  0.0000  0.0000  0.0000  0.0000  0.0000  0.0000  0.0000  0.0000
  o =  0.0240  v =  0.0000  0.0000  0.0000  0.0000  0.0000 -0.9819  0.1896  0.0000  0.0000  0.0000      0.0000  0.0000  0.0000  0.0000  0.0000  0.0000  0.0000  0.0000  0.0000  0.0000
  o =  0.2103  v =  0.0000  0.0000  0.0000  0.0000  0.0000  0.1896  0.9819  0.0000  0.0000  0.0000      0.0000  0.0000  0.0000  0.0000  0.0000  0.0000  0.0000  0.0000  0.0000  0.0000
  o =  0.2485  v =  0.0000  0.0000  0.0000  0.0000  0.0000  0.0000  0.0000 -0.4669 -0.3406  0.8161      0.0000  0.0000  0.0000  0.0000  0.0000  0.0000  0.0000  0.0000  0.0000  0.0000
  o =  0.6634  v =  0.0000  0.0000 -0.4169 -0.4391  0.7958  0.0000  0.0000  0.0000  0.0000  0.0000      0.0000  0.0000  0.0000  0.0000  0.0000  0.0000  0.0000  0.0000  0.0000  0.0000
  o =  0.7158  v = -0.3262 -0.9453  0.0000  0.0000  0.0000  0.0000  0.0000  0.0000  0.0000  0.0000      0.0000  0.0000  0.0000  0.0000  0.0000  0.0000  0.0000  0.0000  0.0000  0.0000
  o =  0.7832  v = -0.9453  0.3262  0.0000  0.0000  0.0000  0.0000  0.0000  0.0000  0.0000  0.0000      0.0000  0.0000  0.0000  0.0000  0.0000  0.0000  0.0000  0.0000  0.0000  0.0000
  o =  0.7843  v =  0.0000  0.0000  0.7047  0.3969  0.5881  0.0000  0.0000  0.0000  0.0000  0.0000      0.0000  0.0000  0.0000  0.0000  0.0000  0.0000  0.0000  0.0000  0.0000  0.0000
  o =  0.8065  v =  0.0000  0.0000 -0.5741  0.8060  0.1440  0.0000  0.0000  0.0000  0.0000  0.0000      0.0000  0.0000  0.0000  0.0000  0.0000  0.0000  0.0000  0.0000  0.0000  0.0000
atom =   2  type =  1  l = 2
 
 onsite density matrix
 
spin component  1
 
  0.5213 -0.0339  0.0000  0.0000  0.0000
 -0.0339  0.4940  0.0000  0.0000  0.0000
  0.0000  0.0000  0.5521 -0.0008  0.0150
  0.0000  0.0000 -0.0008  0.5668 -0.0024
  0.0000  0.0000  0.0150 -0.0024  0.4724
 
spin component  2
 
  0.3933  0.0205  0.0000  0.0000  0.0000
  0.0205  0.2634  0.0000  0.0000  0.0000
  0.0000  0.0000  0.3669  0.0345  0.0733
  0.0000  0.0000  0.0345  0.4461 -0.0170
  0.0000  0.0000  0.0733 -0.0170  0.3289
 
 occupancies and eigenvectors
 
  o =  0.2603  v =  0.0000  0.0000  0.0000  0.0000  0.0000 -0.1522  0.9884  0.0000  0.0000  0.0000      0.0000  0.0000  0.0000  0.0000  0.0000  0.0000  0.0000  0.0000  0.0000  0.0000
[...]
     55      10.1533      0.00000
     56      10.1815      0.00000

 k-point  72 :       0.1429   -0.1429    0.4000
  band No.  band energies     occupation 
      1     -16.3421      1.00000
      2     -16.0926      1.00000
      3     -15.6287      1.00000
      4     -15.5936      1.00000
      5     -15.4783      1.00000
      6     -15.4740      1.00000
      7     -15.3206      1.00000
      8     -15.2152      1.00000
      9     -11.3610      1.00000
     10     -11.3245      1.00000
     11     -11.2748      1.00000
     12     -11.1683      1.00000
     13     -11.0859      1.00000
     14      -3.7863      1.00000
     15      -3.2990      1.00000
     16      -2.9221      1.00000
     17      -2.5403      1.00000
     18      -2.4012      1.00000
     19      -2.3339      1.00000
     20      -2.2588      1.00000
     21      -2.0318      1.00000
     22      -2.0246      1.00000
     23      -1.9457      1.00000
     24      -1.6289      1.00000
     25      -1.4254      1.00000
     26      -1.3679      1.00000
     27      -1.0915      1.00000
     28      -1.0864      1.00000
     29      -0.6320      1.00000
     30      -0.5505      1.00000
     31      -0.4512      1.00000
     32      -0.0166      1.00000
     33       0.1134      1.00000
     34       0.1557      1.00000
     35       0.4474      1.00000
     36       0.7460      1.00000
     37       0.9227      1.00000
     38       4.4520      0.00000
     39       4.7408      0.00000
     40       4.9474      0.00000
     41       5.1202      0.00000
     42       5.3390      0.00000
     43       5.4988      0.00000
     44       5.5198      0.00000
     45       5.6864      0.00000
     46       5.7489      0.00000
     47       5.7864      0.00000
     48       6.3597      0.00000
     49       6.7243      0.00000
     50       6.9103      0.00000
     51       7.1588      0.00000
     52       7.4776      0.00000
     53       7.9224      0.00000
     54       9.0951      0.00000
     55       9.8565      0.00000
     56      10.5480      0.00000


--------------------------------------------------------------------------------------------------------


 soft charge-density along one line, spin component           1
         0         1         2         3         4         5         6         7         8         9
 total charge-density along one line
 
 soft charge-density along one line, spin component           2
         0         1         2         3         4         5         6         7         8         9
 total charge-density along one line
 
 pseudopotential strength for first ion, spin component:           1
 -7.332   0.474   0.000   0.000   0.000   0.121  -0.062   0.000
  0.474  -5.595   0.000   0.000   0.000  -0.062  -0.111   0.000
  0.000   0.000  -7.182   0.303  -0.698   0.000   0.000   0.102
  0.000   0.000   0.303  -7.197  -0.589   0.000   0.000  -0.040
  0.000   0.000  -0.698  -0.589  -6.204   0.000   0.000   0.096
  0.121  -0.062   0.000   0.000   0.000   0.436   0.042   0.000
 -0.062  -0.111   0.000   0.000   0.000   0.042   0.591   0.000
  0.000   0.000   0.102  -0.040   0.096   0.000   0.000   0.450
  0.000   0.000  -0.040   0.103   0.081   0.000   0.000   0.027
  0.000   0.000   0.096   0.081  -0.032   0.000   0.000  -0.062
  0.000   0.000   0.003   0.003  -0.003   0.000   0.000   0.000
  0.000   0.000   0.000   0.000   0.001   0.000   0.000   0.000
  0.000   0.000   0.000   0.000   0.000   0.000   0.000   0.000
  0.000   0.000   0.000   0.000   0.000   0.000   0.000   0.000
  0.000   0.000   0.000   0.000   0.000   0.000   0.000   0.000
  0.000   0.000   0.000   0.000   0.000   0.000   0.000   0.000
  0.000   0.000   0.000   0.000   0.000   0.000   0.000   0.000
  0.000   0.000   0.000   0.000   0.000   0.000   0.000   0.000
 pseudopotential strength for first ion, spin component:           2
 -2.856  -0.227   0.000   0.000   0.000  -0.717   0.046   0.000
 -0.227  -3.779   0.000   0.000   0.000   0.046  -0.542   0.000
  0.000   0.000  -3.000  -0.190   0.459   0.000   0.000  -0.691
  0.000   0.000  -0.190  -2.949   0.326   0.000   0.000   0.035
  0.000   0.000   0.459   0.326  -3.562   0.000   0.000  -0.081
 -0.717   0.046   0.000   0.000   0.000   0.816  -0.017   0.000
  0.046  -0.542   0.000   0.000   0.000  -0.017   0.745   0.000
  0.000   0.000  -0.691   0.035  -0.081   0.000   0.000   0.806
  0.000   0.000   0.035  -0.701  -0.060   0.000   0.000  -0.015
  0.000   0.000  -0.081  -0.060  -0.589   0.000   0.000   0.037
  0.000   0.000  -0.001   0.005   0.002   0.000   0.000   0.000
  0.000   0.000   0.000  -0.001   0.000   0.000   0.000   0.000
  0.000   0.000   0.000   0.000   0.000   0.000   0.000   0.000
  0.000   0.000   0.000   0.000   0.000   0.000   0.000   0.000
  0.000   0.000   0.000   0.000   0.000   0.000   0.000   0.000
  0.000   0.000   0.000   0.000   0.000   0.000   0.000   0.000
  0.000   0.000   0.000   0.000   0.000   0.000   0.000   0.000
  0.000   0.000   0.000   0.000   0.000   0.000   0.000   0.000
 total augmentation occupancy for first ion, spin component:           1
  1.014  -0.085   0.000   0.000   0.000  -0.151   0.169   0.000   0.000   0.000   0.000   0.000   0.000   0.000   0.000   0.000
 -0.085   0.749   0.000   0.000   0.000   0.169   0.590   0.000   0.000   0.000   0.000   0.000   0.000   0.000   0.000   0.000
  0.000   0.000   1.009  -0.036   0.062   0.000   0.000   0.002   0.144  -0.390  -0.016   0.004   0.000   0.000   0.000   0.000
  0.000   0.000  -0.036   1.007   0.069   0.000   0.000   0.147  -0.062  -0.273  -0.031   0.008   0.000   0.000   0.000   0.000
  0.000   0.000   0.062   0.069   0.892   0.000   0.000  -0.395  -0.271   0.452   0.061  -0.045   0.000   0.000   0.000   0.000
 -0.151   0.169   0.000   0.000   0.000   0.453  -0.005   0.000   0.000   0.000   0.000   0.000   0.000   0.000   0.000   0.000
  0.169   0.590   0.000   0.000   0.000  -0.005   0.752   0.000   0.000   0.000   0.000   0.000   0.000   0.000   0.000   0.000
  0.000   0.000   0.002   0.147  -0.395   0.000   0.000   0.590   0.060  -0.284   0.011   0.003   0.000   0.000   0.000   0.000
  0.000   0.000   0.144  -0.062  -0.271   0.000   0.000   0.060   0.473  -0.084  -0.026   0.020   0.000   0.000   0.000   0.000
  0.000   0.000  -0.390  -0.273   0.452   0.000   0.000  -0.284  -0.084   0.800   0.149  -0.079   0.000   0.000   0.000   0.000
  0.000   0.000  -0.016  -0.031   0.061   0.000   0.000   0.011  -0.026   0.149   1.123  -0.371   0.000   0.000   0.000   0.000
  0.000   0.000   0.004   0.008  -0.045   0.000   0.000   0.003   0.020  -0.079  -0.371   0.209   0.000   0.000   0.000   0.000
  0.000   0.000   0.000   0.000   0.000   0.000   0.000   0.000   0.000   0.000   0.000   0.000   0.286   0.000   0.000  -0.015
  0.000   0.000   0.000   0.000   0.000   0.000   0.000   0.000   0.000   0.000   0.000   0.000   0.000   0.314  -0.011   0.000
  0.000   0.000   0.000   0.000   0.000   0.000   0.000   0.000   0.000   0.000   0.000   0.000   0.000  -0.011   0.371   0.000
  0.000   0.000   0.000   0.000   0.000   0.000   0.000   0.000   0.000   0.000   0.000   0.000  -0.015   0.000   0.000   0.001
  0.000   0.000   0.000   0.000   0.000   0.000   0.000   0.000   0.000   0.000   0.000   0.000   0.000  -0.018   0.000   0.000
  0.000   0.000   0.000   0.000   0.000   0.000   0.000   0.000   0.000   0.000   0.000   0.000   0.000   0.000  -0.020   0.000
 total augmentation occupancy for first ion, spin component:           2
  0.841  -0.165   0.000   0.000   0.000  -0.338   0.087   0.000   0.000   0.000   0.000   0.000   0.000   0.000   0.000   0.000
 -0.165   0.201   0.000   0.000   0.000   0.087  -0.049   0.000   0.000   0.000   0.000   0.000   0.000   0.000   0.000   0.000
  0.000   0.000   0.775  -0.119   0.287   0.000   0.000  -0.298   0.048  -0.106  -0.014   0.001   0.000   0.000   0.000   0.000
  0.000   0.000  -0.119   0.790   0.216   0.000   0.000   0.052  -0.303  -0.108  -0.007  -0.003   0.000   0.000   0.000   0.000
  0.000   0.000   0.287   0.216   0.399   0.000   0.000  -0.112  -0.105  -0.144  -0.023   0.000   0.000   0.000   0.000   0.000
 -0.338   0.087   0.000   0.000   0.000   0.246  -0.102   0.000   0.000   0.000   0.000   0.000   0.000   0.000   0.000   0.000
  0.087  -0.049   0.000   0.000   0.000  -0.102  -0.062   0.000   0.000   0.000   0.000   0.000   0.000   0.000   0.000   0.000
  0.000   0.000  -0.298   0.052  -0.112   0.000   0.000   0.182  -0.063   0.108   0.017  -0.003   0.000   0.000   0.000   0.000
  0.000   0.000   0.048  -0.303  -0.105   0.000   0.000  -0.063   0.192   0.130   0.009  -0.001   0.000   0.000   0.000   0.000
  0.000   0.000  -0.106  -0.108  -0.144   0.000   0.000   0.108   0.130   0.011   0.005   0.006   0.000   0.000   0.000   0.000
  0.000   0.000  -0.014  -0.007  -0.023   0.000   0.000   0.017   0.009   0.005   0.109   0.061   0.000   0.000   0.000   0.000
  0.000   0.000   0.001  -0.003   0.000   0.000   0.000  -0.003  -0.001   0.006   0.061  -0.043   0.000   0.000   0.000   0.000
  0.000   0.000   0.000   0.000   0.000   0.000   0.000   0.000   0.000   0.000   0.000   0.000   0.023   0.000   0.000   0.002
  0.000   0.000   0.000   0.000   0.000   0.000   0.000   0.000   0.000   0.000   0.000   0.000   0.000   0.019   0.002   0.000
  0.000   0.000   0.000   0.000   0.000   0.000   0.000   0.000   0.000   0.000   0.000   0.000   0.000   0.002   0.016   0.000
  0.000   0.000   0.000   0.000   0.000   0.000   0.000   0.000   0.000   0.000   0.000   0.000   0.002   0.000   0.000   0.000
  0.000   0.000   0.000   0.000   0.000   0.000   0.000   0.000   0.000   0.000   0.000   0.000   0.000   0.002   0.000   0.000
  0.000   0.000   0.000   0.000   0.000   0.000   0.000   0.000   0.000   0.000   0.000   0.000   0.000   0.000   0.002   0.000


------------------------ aborting loop because EDIFF is reached ----------------------------------------


 


 total charge     
 
# of ion     s       p       d       tot
----------------------------------------
  1        0.400   0.694   4.177   5.272
  2        0.638   1.041   4.650   6.330
  3        0.638   1.041   4.650   6.330
  4        0.613   0.521  10.007  11.141
  5        1.687   3.503   0.000   5.190
  6        1.688   3.463   0.000   5.152
  7        1.672   3.516   0.000   5.188
  8        1.672   3.522   0.000   5.194
  9        1.672   3.516   0.000   5.188
 10        1.672   3.522   0.000   5.194
 11        1.687   3.503   0.000   5.190
 12        1.688   3.463   0.000   5.152
------------------------------------------------
tot       15.729  31.307  23.484  70.520
 


 magnetization (x)
 
# of ion     s       p       d       tot
----------------------------------------
  1        0.021   0.032   2.914   2.967
  2        0.010   0.009   1.326   1.345
  3        0.010   0.009   1.326   1.345
  4        0.039   0.009  -0.003   0.045
  5       -0.004  -0.128   0.000  -0.132
  6        0.000  -0.077   0.000  -0.077
  7       -0.002  -0.085   0.000  -0.087
  8       -0.002  -0.083   0.000  -0.086
  9       -0.002  -0.085   0.000  -0.087
 10       -0.002  -0.083   0.000  -0.086
 11       -0.004  -0.128   0.000  -0.132
 12        0.000  -0.077   0.000  -0.077
------------------------------------------------
tot        0.062  -0.688   5.563   4.937
 
    CHARGE:  cpu time    0.49: real time    0.50
    FORLOC:  cpu time    0.00: real time    0.00
    FORNL :  cpu time    5.69: real time    5.69
    STRESS:  cpu time    5.23: real time    5.23
    FORCOR:  cpu time    0.02: real time    0.02
    FORHAR:  cpu time    0.00: real time    0.00
    MIXING:  cpu time    0.00: real time    0.00
    FORVDW:  cpu time    0.00: real time    0.00

  FORCE on cell =-STRESS in cart. coord.  units (eV):
  Direction    XX          YY          ZZ          XY          YZ          ZX
  --------------------------------------------------------------------------------------
  Alpha Z   233.96820   233.96820   233.96820
  Ewald   -1451.06810 -1603.70049 -1160.74279     0.00000     0.00000    12.35340
  Hartree   566.42514   499.74488   749.90440     0.00000     0.00000    15.37310
  E(xc)    -385.26496  -385.25079  -385.67398     0.00000     0.00000     0.12578
  Local    -404.53710  -202.26055  -872.91194     0.00000     0.00000   -28.42939
  n-local  -184.20144  -192.39210  -185.96235    -0.16542     0.23021    -0.40795
  augment   293.17161   298.16728   296.20310     0.00000     0.00000    -0.39454
  Kinetic  1297.73442  1315.32673  1290.22515    -0.14099    -0.66679     1.31223
  Fock        0.00000     0.00000     0.00000     0.00000     0.00000     0.00000
  -------------------------------------------------------------------------------------
  Total     -33.77222   -36.39683   -34.99022     0.00000     0.00000    -0.06737
  in kB    -346.72450  -373.67022  -359.22913     0.00000     0.00000    -0.69167
  external pressure =     -359.87 kB  Pullay stress =        0.00 kB


 VOLUME and BASIS-vectors are now :
 -----------------------------------------------------------------------------
  energy-cutoff  :      300.00
  volume of cell :      156.06
      direct lattice vectors                 reciprocal lattice vectors
     4.235550000  2.820200000  0.000000000     0.118048423  0.177292391  0.000082406
    -4.235550000  2.820200000  0.000000000    -0.118048423  0.177292391 -0.000082406
    -0.004560000  0.000000000  6.532298000     0.000000000  0.000000000  0.153085484

  length of vectors
     5.088556951  5.088556951  6.532299592     0.212997720  0.212997720  0.153085484


 FORCES acting on ions
    electron-ion (+dipol)            ewald-force                    non-local-force                 convergence-correction
 -----------------------------------------------------------------------------------------------
   0.227E-14 0.184E-16 0.369E-13   -.977E-14 0.826E-13 0.195E-13   0.194E-22 0.000E+00 0.000E+00   -.228E-13 -.789E-14 0.210E-13
   0.525E+02 0.185E-04 0.213E+02   -.520E+02 -.386E-13 -.214E+02   -.594E+00 -.173E-17 -.136E+00   -.172E+00 0.144E-12 0.368E-01
   -.525E+02 -.185E-04 -.213E+02   0.520E+02 -.420E-13 0.214E+02   0.594E+00 0.694E-17 0.136E+00   0.172E+00 -.209E-12 -.368E-01
   0.292E-15 0.346E-15 0.434E-15   0.284E-13 0.314E-13 0.284E-13   0.482E-22 -.331E-23 0.000E+00   -.523E-13 0.133E-12 0.283E-13
   -.397E+02 0.100E-03 -.985E+02   0.377E+02 -.177E-13 0.116E+03   0.202E+01 0.000E+00 -.170E+02   0.230E+00 -.231E-12 -.170E+00
   0.659E+02 0.818E-04 -.111E+03   -.650E+02 0.116E-13 0.133E+03   -.588E-01 0.000E+00 -.209E+02   -.218E+00 -.810E-13 -.210E+00
   -.412E+02 -.694E+02 -.307E+02   0.509E+02 0.650E+02 0.309E+02   -.941E+01 0.381E+01 -.483E+00   -.290E-01 0.281E+00 -.480E-01
   0.412E+02 -.694E+02 0.307E+02   -.509E+02 0.650E+02 -.309E+02   0.941E+01 0.381E+01 0.483E+00   0.290E-01 0.281E+00 0.480E-01
   0.412E+02 0.694E+02 0.307E+02   -.509E+02 -.650E+02 -.309E+02   0.941E+01 -.381E+01 0.483E+00   0.290E-01 -.281E+00 0.480E-01
   -.412E+02 0.694E+02 -.307E+02   0.509E+02 -.650E+02 0.309E+02   -.941E+01 -.381E+01 -.483E+00   -.290E-01 -.281E+00 -.480E-01
   0.397E+02 -.100E-03 0.985E+02   -.377E+02 0.114E-13 -.116E+03   -.202E+01 0.000E+00 0.170E+02   -.230E+00 0.226E-12 0.170E+00
   -.659E+02 -.818E-04 0.111E+03   0.650E+02 -.755E-14 -.133E+03   0.588E-01 0.347E-17 0.209E+02   0.218E+00 0.245E-13 0.210E+00
 -----------------------------------------------------------------------------------------------
   0.202E-11 0.286E-11 0.678E-11   0.142E-13 0.323E-13 0.568E-13   -.305E-14 0.448E-15 0.000E+00   0.485E-13 0.235E-13 0.998E-13
 
 
 POSITION                                       TOTAL-FORCE (eV/Angst)
 -----------------------------------------------------------------------------------
     -0.00228      0.00000      3.26615         0.000000      0.000000      0.000000
      1.20293      2.82020      4.80712        -0.212032      0.000000     -0.210706
     -1.20749      2.82020      1.72518         0.212032      0.000000      0.210706
      0.00000      0.00000      0.00000         0.000000      0.000000      0.000000
     -2.34940      2.82020      2.95391         0.294211      0.000000      0.298103
      2.05242      2.82020      6.25206         0.622565      0.000000      0.556149
     -0.23759      1.34580      1.79050         0.238289     -0.304070     -0.356062
      0.23303      1.34580      4.74180        -0.238289     -0.304070      0.356062
      0.23303      4.29460      4.74180        -0.238289      0.304070      0.356062
     -0.23759      4.29460      1.79050         0.238289      0.304070     -0.356062
      2.34484      2.82020      3.57839        -0.294211      0.000000     -0.298103
     -2.05698      2.82020      0.28024        -0.622565      0.000000     -0.556149
 -----------------------------------------------------------------------------------
    total drift:                                0.000000      0.000000      0.000000


--------------------------------------------------------------------------------------------------------



  FREE ENERGIE OF THE ION-ELECTRON SYSTEM (eV)
  ---------------------------------------------------
  free  energy   TOTEN  =       -82.39051448 eV

  energy  without entropy=      -82.31237071  energy(sigma->0) =      -82.35144259
 


--------------------------------------------------------------------------------------------------------


    POTLOK:  cpu time    0.04: real time    0.05


--------------------------------------------------------------------------------------------------------


     LOOP+:  cpu time  411.43: real time  414.51
    4ORBIT:  cpu time    0.00: real time    0.00
 


 total charge     
 
# of ion     s       p       d       tot
----------------------------------------
  1        0.400   0.694   4.177   5.272
  2        0.638   1.041   4.650   6.330
  3        0.638   1.041   4.650   6.330
  4        0.613   0.521  10.007  11.141
  5        1.687   3.503   0.000   5.190
  6        1.688   3.463   0.000   5.152
  7        1.672   3.516   0.000   5.188
  8        1.672   3.522   0.000   5.194
  9        1.672   3.516   0.000   5.188
 10        1.672   3.522   0.000   5.194
 11        1.687   3.503   0.000   5.190
 12        1.688   3.463   0.000   5.152
------------------------------------------------
tot       15.729  31.307  23.484  70.520
 


 magnetization (x)
 
# of ion     s       p       d       tot
----------------------------------------
  1        0.021   0.032   2.914   2.967
  2        0.010   0.009   1.326   1.345
  3        0.010   0.009   1.326   1.345
  4        0.039   0.009  -0.003   0.045
  5       -0.004  -0.128   0.000  -0.132
  6        0.000  -0.077   0.000  -0.077
  7       -0.002  -0.085   0.000  -0.087
  8       -0.002  -0.083   0.000  -0.086
  9       -0.002  -0.085   0.000  -0.087
 10       -0.002  -0.083   0.000  -0.086
 11       -0.004  -0.128   0.000  -0.132
 12        0.000  -0.077   0.000  -0.077
------------------------------------------------
tot        0.062  -0.688   5.563   4.937
 

 total amount of memory used by VASP on root node    78005. kBytes
========================================================================

   base      :      30000. kBytes
   nonl-proj :      14583. kBytes
   fftplans  :        307. kBytes
   grid      :        766. kBytes
   one-center:         93. kBytes
   wavefun   :      32256. kBytes
 
  
  
 General timing and accounting informations for this job:
 ========================================================
  
                  Total CPU time used (sec):      418.045
                            User time (sec):      382.266
                          System time (sec):       35.780
                         Elapsed time (sec):      422.728
  
                   Maximum memory used (kb):      137924.
                   Average memory used (kb):           0.
  
                          Minor page faults:        34387
                          Major page faults:            3
                 Voluntary context switches:         2011
