 running on    8 total cores
 distrk:  each k-point on    8 cores,    1 groups
 distr:  one band on    4 cores,    2 groups
 using from now: INCAR     
 vasp.5.3.2 13Sep12 (build Mar 19 2013 12:21:59) complex                        
  
 POSCAR found type information on POSCAR  Cr In O 
 POSCAR found :  3 types and      12 ions
 LDA part: xc-table for Pade appr. of Perdew
 POSCAR, INCAR and KPOINTS ok, starting setup
 WARNING: small aliasing (wrap around) errors must be expected
 FFT: planning ...
 WAVECAR not read
 WARNING: chargedensity file is incomplete
 WARNING: random wavefunctions but no delay for mixing, default for NELMDL
 entering main loop
       N       E                     dE             d eps       ncg     rms          rms(c)
DAV:   1     0.893954436595E+03    0.89395E+03   -0.24335E+04 16168   0.108E+03
DAV:   2     0.848299307815E+02   -0.80912E+03   -0.73673E+03 17264   0.368E+02
DAV:   3    -0.910952915954E+02   -0.17593E+03   -0.16525E+03 19944   0.192E+02
DAV:   4    -0.101847355390E+03   -0.10752E+02   -0.10675E+02 22880   0.556E+01
DAV:   5    -0.102102781518E+03   -0.25543E+00   -0.25514E+00 23400   0.872E+00    0.370E+01
RMM:   6    -0.980796623488E+02    0.40231E+01   -0.18149E+02 19958   0.723E+01    0.368E+01
RMM:   7    -0.877567720479E+02    0.10323E+02   -0.19711E+01 18315   0.247E+01    0.231E+01
RMM:   8    -0.832335828982E+02    0.45232E+01   -0.27227E+00 20710   0.940E+00    0.105E+01
RMM:   9    -0.825905050828E+02    0.64308E+00   -0.10312E+00 21144   0.564E+00    0.550E+00
RMM:  10    -0.823733058133E+02    0.21720E+00   -0.14342E+00 19980   0.608E+00    0.217E+00
RMM:  11    -0.823810795165E+02   -0.77737E-02   -0.21158E-01 23455   0.238E+00    0.108E+00
RMM:  12    -0.823753660568E+02    0.57135E-02   -0.46916E-02 21061   0.123E+00    0.429E-01
RMM:  13    -0.823762594406E+02   -0.89338E-03   -0.56410E-03 22692   0.470E-01    0.307E-01
RMM:  14    -0.823781811168E+02   -0.19217E-02   -0.37009E-03 20916   0.323E-01    0.263E-01
RMM:  15    -0.823805540628E+02   -0.23729E-02   -0.10813E-03 17917   0.215E-01    0.334E-01
RMM:  16    -0.823760645048E+02    0.44896E-02   -0.38014E-03 17069   0.414E-01    0.579E-01
RMM:  17    -0.823815742244E+02   -0.55097E-02   -0.39796E-03 17389   0.396E-01    0.287E-01
RMM:  18    -0.823850595123E+02   -0.34853E-02   -0.56532E-03 18083   0.482E-01    0.102E-01
RMM:  19    -0.823881641919E+02   -0.31047E-02   -0.16761E-03 19060   0.245E-01    0.173E-01
RMM:  20    -0.823895286476E+02   -0.13645E-02   -0.59379E-04 13935   0.165E-01    0.287E-01
RMM:  21    -0.823897620385E+02   -0.23339E-03   -0.32454E-04 12444   0.120E-01    0.371E-01
RMM:  22    -0.823904244194E+02   -0.66238E-03   -0.17519E-04 11486   0.876E-02    0.390E-01
RMM:  23    -0.823908742445E+02   -0.44983E-03   -0.11802E-04  9652   0.664E-02    0.408E-01
RMM:  24    -0.823910774913E+02   -0.20325E-03   -0.66964E-05  8965   0.513E-02    0.426E-01
RMM:  25    -0.823903115331E+02    0.76596E-03   -0.57724E-05  9311   0.562E-02    0.474E-01
RMM:  26    -0.823907640150E+02   -0.45248E-03   -0.30386E-05  8437   0.361E-02    0.462E-01
RMM:  27    -0.823905706686E+02    0.19335E-03   -0.16240E-05  7714   0.253E-02    0.477E-01
RMM:  28    -0.823905144752E+02    0.56193E-04   -0.89903E-06  6061   0.151E-02
   1 F= -.82390514E+02 E0= -.82351443E+02  d E =-.781438E-01  mag=     5.0001
