   3   3   1   0
  0.2592913E+02  0.4162547E-09  0.4162547E-09  0.5183944E-09  0.5000000E-15
  1.000000000000000E-004
  CAR 
 unknown system                          
     11.32257831    -34.44810305  301      3.52721641      1.00000000
    -34.448  0.0000E+00  0.0000E+00
    -34.296  0.0000E+00  0.0000E+00
    -34.143  0.0000E+00  0.0000E+00
    -33.990  0.0000E+00  0.0000E+00
    -33.838  0.0000E+00  0.0000E+00
    -33.685  0.0000E+00  0.0000E+00
    -33.533  0.0000E+00  0.0000E+00
    -33.380  0.0000E+00  0.0000E+00
    -33.228  0.0000E+00  0.0000E+00
    -33.075  0.0000E+00  0.0000E+00
    -32.922  0.0000E+00  0.0000E+00
    -32.770  0.0000E+00  0.0000E+00
    -32.617  0.0000E+00  0.0000E+00
    -32.465  0.0000E+00  0.0000E+00
    -32.312  0.0000E+00  0.2000E+01
    -32.160  0.0000E+00  0.2000E+01
    -32.007  0.0000E+00  0.2000E+01
    -31.854  0.0000E+00  0.2000E+01
    -31.702  0.0000E+00  0.2000E+01
    -31.549  0.0000E+00  0.2000E+01
    -31.397  0.0000E+00  0.2000E+01
    -31.244  0.0000E+00  0.2000E+01
    -31.092  0.0000E+00  0.2000E+01
    -30.939  0.0000E+00  0.2000E+01
    -30.786  0.0000E+00  0.2000E+01
    -30.634  0.0000E+00  0.2000E+01
    -30.481  0.0000E+00  0.2000E+01
    -30.329  0.0000E+00  0.2000E+01
    -30.176  0.0000E+00  0.2000E+01
    -30.024  0.0000E+00  0.2000E+01
    -29.871  0.0000E+00  0.2000E+01
    -29.718  0.0000E+00  0.2000E+01
    -29.566  0.0000E+00  0.2000E+01
    -29.413  0.0000E+00  0.2000E+01
    -29.261  0.0000E+00  0.2000E+01
    -29.108  0.0000E+00  0.2000E+01
    -28.956  0.0000E+00  0.2000E+01
    -28.803  0.0000E+00  0.2000E+01
    -28.650  0.0000E+00  0.2000E+01
    -28.498  0.0000E+00  0.2000E+01
    -28.345  0.0000E+00  0.2000E+01
    -28.193  0.0000E+00  0.2000E+01
    -28.040  0.0000E+00  0.2000E+01
    -27.888  0.0000E+00  0.2000E+01
    -27.735  0.0000E+00  0.2000E+01
    -27.583  0.0000E+00  0.2000E+01
    -27.430  0.0000E+00  0.2000E+01
    -27.277  0.0000E+00  0.2000E+01
    -27.125  0.0000E+00  0.2000E+01
    -26.972  0.0000E+00  0.2000E+01
    -26.820  0.0000E+00  0.2000E+01
    -26.667  0.0000E+00  0.2000E+01
    -26.515  0.0000E+00  0.2000E+01
    -26.362  0.0000E+00  0.2000E+01
    -26.209  0.0000E+00  0.2000E+01
    -26.057  0.0000E+00  0.2000E+01
    -25.904  0.0000E+00  0.2000E+01
    -25.752  0.0000E+00  0.2000E+01
    -25.599  0.0000E+00  0.2000E+01
    -25.447  0.0000E+00  0.2000E+01
    -25.294  0.0000E+00  0.2000E+01
    -25.141  0.0000E+00  0.2000E+01
    -24.989  0.0000E+00  0.2000E+01
    -24.836  0.0000E+00  0.2000E+01
    -24.684  0.0000E+00  0.2000E+01
    -24.531  0.0000E+00  0.2000E+01
    -24.379  0.0000E+00  0.2000E+01
    -24.226  0.0000E+00  0.2000E+01
    -24.073  0.0000E+00  0.2000E+01
    -23.921  0.0000E+00  0.2000E+01
    -23.768  0.0000E+00  0.2000E+01
    -23.616  0.0000E+00  0.2000E+01
    -23.463  0.0000E+00  0.2000E+01
    -23.311  0.0000E+00  0.2000E+01
    -23.158  0.0000E+00  0.2000E+01
    -23.005  0.0000E+00  0.2000E+01
    -22.853  0.0000E+00  0.2000E+01
    -22.700  0.0000E+00  0.2000E+01
    -22.548  0.0000E+00  0.2000E+01
    -22.395  0.0000E+00  0.2000E+01
    -22.243  0.0000E+00  0.2000E+01
    -22.090  0.0000E+00  0.2000E+01
    -21.937  0.0000E+00  0.2000E+01
    -21.785  0.0000E+00  0.2000E+01
    -21.632  0.0000E+00  0.2000E+01
    -21.480  0.0000E+00  0.2000E+01
    -21.327  0.1258E+02  0.5935E+01
    -21.175  0.0000E+00  0.2200E+02
    -21.022  0.0000E+00  0.2200E+02
    -20.869  0.0000E+00  0.2200E+02
    -20.717  0.0000E+00  0.2200E+02
    -20.564  0.0000E+00  0.2200E+02
    -20.412  0.0000E+00  0.2200E+02
    -20.259  0.0000E+00  0.2200E+02
    -20.107  0.0000E+00  0.2200E+02
    -19.954  0.0000E+00  0.2200E+02
    -19.801  0.0000E+00  0.2200E+02
    -19.649  0.0000E+00  0.2200E+02
    -19.496  0.0000E+00  0.2200E+02
    -19.344  0.0000E+00  0.2200E+02
    -19.191  0.0000E+00  0.2200E+02
    -19.039  0.0000E+00  0.2200E+02
    -18.886  0.0000E+00  0.2200E+02
    -18.734  0.0000E+00  0.2200E+02
    -18.581  0.0000E+00  0.2200E+02
    -18.428  0.0000E+00  0.2200E+02
    -18.276  0.0000E+00  0.2200E+02
    -18.123  0.0000E+00  0.2200E+02
    -17.971  0.0000E+00  0.2200E+02
    -17.818  0.0000E+00  0.2200E+02
    -17.666  0.0000E+00  0.2200E+02
    -17.513  0.0000E+00  0.2200E+02
    -17.360  0.0000E+00  0.2200E+02
    -17.208  0.0000E+00  0.2200E+02
    -17.055  0.0000E+00  0.2200E+02
    -16.903  0.0000E+00  0.2200E+02
    -16.750  0.0000E+00  0.2200E+02
    -16.598  0.0000E+00  0.2200E+02
    -16.445  0.0000E+00  0.2200E+02
    -16.292  0.0000E+00  0.2200E+02
    -16.140  0.0000E+00  0.2200E+02
    -15.987  0.0000E+00  0.2200E+02
    -15.835  0.0000E+00  0.2200E+02
    -15.682  0.0000E+00  0.2200E+02
    -15.530  0.0000E+00  0.2200E+02
    -15.377  0.0000E+00  0.2200E+02
    -15.224  0.0000E+00  0.2200E+02
    -15.072  0.0000E+00  0.2200E+02
    -14.919  0.0000E+00  0.2200E+02
    -14.767  0.0000E+00  0.2200E+02
    -14.614  0.4617E+01  0.2206E+02
    -14.462  0.1305E+02  0.2592E+02
    -14.309  0.0000E+00  0.2800E+02
    -14.156  0.0000E+00  0.2800E+02
    -14.004  0.0000E+00  0.2800E+02
    -13.851  0.0000E+00  0.2800E+02
    -13.699  0.0000E+00  0.2800E+02
    -13.546  0.0000E+00  0.2800E+02
    -13.394  0.0000E+00  0.2800E+02
    -13.241  0.0000E+00  0.2800E+02
    -13.088  0.0000E+00  0.2800E+02
    -12.936  0.0000E+00  0.2800E+02
    -12.783  0.0000E+00  0.2800E+02
    -12.631  0.0000E+00  0.2800E+02
    -12.478  0.0000E+00  0.2800E+02
    -12.326  0.0000E+00  0.2800E+02
    -12.173  0.0000E+00  0.2800E+02
    -12.020  0.0000E+00  0.2800E+02
    -11.868  0.0000E+00  0.2800E+02
    -11.715  0.0000E+00  0.2800E+02
    -11.563  0.0000E+00  0.2800E+02
    -11.410  0.0000E+00  0.2800E+02
    -11.258  0.0000E+00  0.2800E+02
    -11.105  0.0000E+00  0.2800E+02
    -10.952  0.0000E+00  0.2800E+02
    -10.800  0.0000E+00  0.2800E+02
    -10.647  0.0000E+00  0.2800E+02
    -10.495  0.0000E+00  0.2800E+02
    -10.342  0.0000E+00  0.2800E+02
    -10.190  0.0000E+00  0.2800E+02
    -10.037  0.0000E+00  0.2800E+02
     -9.885  0.0000E+00  0.2800E+02
     -9.732  0.0000E+00  0.2800E+02
     -9.579  0.0000E+00  0.2800E+02
     -9.427  0.0000E+00  0.2800E+02
     -9.274  0.0000E+00  0.2800E+02
     -9.122  0.0000E+00  0.2800E+02
     -8.969  0.0000E+00  0.2800E+02
     -8.817  0.0000E+00  0.2800E+02
     -8.664  0.0000E+00  0.2800E+02
     -8.511  0.0000E+00  0.2800E+02
     -8.359  0.0000E+00  0.2800E+02
     -8.206  0.0000E+00  0.2800E+02
     -8.054  0.0000E+00  0.2800E+02
     -7.901  0.2826E+00  0.2802E+02
     -7.749  0.4862E+00  0.2808E+02
     -7.596  0.7689E+00  0.2818E+02
     -7.443  0.7660E+00  0.2830E+02
     -7.291  0.7814E+00  0.2842E+02
     -7.138  0.8004E+00  0.2854E+02
     -6.986  0.8199E+00  0.2866E+02
     -6.833  0.8358E+00  0.2879E+02
     -6.681  0.8773E+00  0.2892E+02
     -6.528  0.9153E+00  0.2905E+02
     -6.375  0.1001E+01  0.2920E+02
     -6.223  0.1190E+01  0.2936E+02
     -6.070  0.1503E+01  0.2958E+02
     -5.918  0.8471E+00  0.2976E+02
     -5.765  0.5677E+00  0.2986E+02
     -5.613  0.3667E+00  0.2993E+02
     -5.460  0.2300E+00  0.2998E+02
     -5.307  0.0000E+00  0.3000E+02
     -5.155  0.0000E+00  0.3000E+02
     -5.002  0.2225E+00  0.3001E+02
     -4.850  0.3178E+00  0.3005E+02
     -4.697  0.6326E+00  0.3011E+02
     -4.545  0.1123E+01  0.3023E+02
     -4.392  0.1178E+01  0.3041E+02
     -4.239  0.9925E+00  0.3058E+02
     -4.087  0.8055E+00  0.3072E+02
     -3.934  0.6947E+00  0.3083E+02
     -3.782  0.6490E+00  0.3093E+02
     -3.629  0.6087E+00  0.3103E+02
     -3.477  0.5679E+00  0.3112E+02
     -3.324  0.5472E+00  0.3120E+02
     -3.171  0.5318E+00  0.3129E+02
     -3.019  0.5285E+00  0.3137E+02
     -2.866  0.5275E+00  0.3145E+02
     -2.714  0.6038E+00  0.3153E+02
     -2.561  0.7905E+00  0.3167E+02
     -2.409  0.5346E+00  0.3177E+02
     -2.256  0.3816E+00  0.3184E+02
     -2.103  0.2926E+00  0.3189E+02
     -1.951  0.2192E+00  0.3193E+02
     -1.798  0.1653E+00  0.3196E+02
     -1.646  0.1205E+00  0.3198E+02
     -1.493  0.6349E-01  0.3200E+02
     -1.341  0.3015E-03  0.3200E+02
     -1.188  0.0000E+00  0.3200E+02
     -1.036  0.7520E-01  0.3200E+02
     -0.883  0.2171E+00  0.3202E+02
     -0.730  0.3390E+00  0.3207E+02
     -0.578  0.5103E+00  0.3213E+02
     -0.425  0.7921E+00  0.3223E+02
     -0.273  0.1771E+01  0.3243E+02
     -0.120  0.2225E+01  0.3275E+02
      0.032  0.1854E+01  0.3306E+02
      0.185  0.1992E+01  0.3335E+02
      0.338  0.1608E+01  0.3365E+02
      0.490  0.1485E+01  0.3386E+02
      0.643  0.2346E+01  0.3414E+02
      0.795  0.4260E+01  0.3467E+02
      0.948  0.2151E+01  0.3510E+02
      1.100  0.1368E+01  0.3536E+02
      1.253  0.1433E+01  0.3556E+02
      1.406  0.1465E+01  0.3579E+02
      1.558  0.1545E+01  0.3602E+02
      1.711  0.1599E+01  0.3625E+02
      1.863  0.1427E+01  0.3647E+02
      2.016  0.1548E+01  0.3670E+02
      2.168  0.1620E+01  0.3695E+02
      2.321  0.1602E+01  0.3720E+02
      2.474  0.1273E+01  0.3743E+02
      2.626  0.1025E+01  0.3760E+02
      2.779  0.7012E+00  0.3773E+02
      2.931  0.4682E+00  0.3782E+02
      3.084  0.3604E+00  0.3788E+02
      3.236  0.2559E+00  0.3793E+02
      3.389  0.2038E+00  0.3796E+02
      3.542  0.3465E+00  0.3800E+02
      3.694  0.4911E+00  0.3807E+02
      3.847  0.6535E+00  0.3815E+02
      3.999  0.1080E+01  0.3828E+02
      4.152  0.1515E+01  0.3849E+02
      4.304  0.1637E+01  0.3873E+02
      4.457  0.2137E+01  0.3901E+02
      4.610  0.2194E+01  0.3936E+02
      4.762  0.2000E+01  0.3967E+02
      4.915  0.2435E+01  0.4001E+02
      5.067  0.2482E+01  0.4040E+02
      5.220  0.2308E+01  0.4078E+02
      5.372  0.2073E+01  0.4112E+02
      5.525  0.3567E+01  0.4146E+02
      5.678  0.3965E+01  0.4207E+02
      5.830  0.4000E+01  0.4268E+02
      5.983  0.4241E+01  0.4331E+02
      6.135  0.3590E+01  0.4395E+02
      6.288  0.3856E+01  0.4449E+02
      6.440  0.3003E+01  0.4509E+02
      6.593  0.2181E+01  0.4546E+02
      6.746  0.2112E+01  0.4579E+02
      6.898  0.1817E+01  0.4608E+02
      7.051  0.1466E+01  0.4634E+02
      7.203  0.1181E+01  0.4655E+02
      7.356  0.1086E+01  0.4672E+02
      7.508  0.9284E+00  0.4688E+02
      7.661  0.8920E+00  0.4702E+02
      7.813  0.9877E+00  0.4716E+02
      7.966  0.1026E+01  0.4732E+02
      8.119  0.9282E+00  0.4746E+02
      8.271  0.7968E+00  0.4760E+02
      8.424  0.6835E+00  0.4771E+02
      8.576  0.6119E+00  0.4781E+02
      8.729  0.6715E+00  0.4790E+02
      8.881  0.2879E+00  0.4798E+02
      9.034  0.4044E-01  0.4800E+02
      9.187  0.2691E-03  0.4800E+02
      9.339  0.0000E+00  0.4800E+02
      9.492  0.0000E+00  0.4800E+02
      9.644  0.0000E+00  0.4800E+02
      9.797  0.0000E+00  0.4800E+02
      9.949  0.0000E+00  0.4800E+02
     10.102  0.0000E+00  0.4800E+02
     10.255  0.0000E+00  0.4800E+02
     10.407  0.0000E+00  0.4800E+02
     10.560  0.0000E+00  0.4800E+02
     10.712  0.0000E+00  0.4800E+02
     10.865  0.0000E+00  0.4800E+02
     11.017  0.0000E+00  0.4800E+02
     11.170  0.0000E+00  0.4800E+02
     11.323  0.0000E+00  0.4800E+02
     11.32257831    -34.44810305  301      3.52721641      1.00000000
    -34.448  0.0000E+00  0.0000E+00  0.0000E+00  0.0000E+00  0.0000E+00  0.0000E+00  0.0000E+00  0.0000E+00  0.0000E+00
    -34.296  0.0000E+00  0.0000E+00  0.0000E+00  0.0000E+00  0.0000E+00  0.0000E+00  0.0000E+00  0.0000E+00  0.0000E+00
    -34.143  0.0000E+00  0.0000E+00  0.0000E+00  0.0000E+00  0.0000E+00  0.0000E+00  0.0000E+00  0.0000E+00  0.0000E+00
    -33.990  0.0000E+00  0.0000E+00  0.0000E+00  0.0000E+00  0.0000E+00  0.0000E+00  0.0000E+00  0.0000E+00  0.0000E+00
    -33.838  0.0000E+00  0.0000E+00  0.0000E+00  0.0000E+00  0.0000E+00  0.0000E+00  0.0000E+00  0.0000E+00  0.0000E+00
    -33.685  0.0000E+00  0.0000E+00  0.0000E+00  0.0000E+00  0.0000E+00  0.0000E+00  0.0000E+00  0.0000E+00  0.0000E+00
    -33.533  0.0000E+00  0.0000E+00  0.0000E+00  0.0000E+00  0.0000E+00  0.0000E+00  0.0000E+00  0.0000E+00  0.0000E+00
    -33.380  0.0000E+00  0.0000E+00  0.0000E+00  0.0000E+00  0.0000E+00  0.0000E+00  0.0000E+00  0.0000E+00  0.0000E+00
    -33.228  0.0000E+00  0.0000E+00  0.0000E+00  0.0000E+00  0.0000E+00  0.0000E+00  0.0000E+00  0.0000E+00  0.0000E+00
    -33.075  0.0000E+00  0.0000E+00  0.0000E+00  0.0000E+00  0.0000E+00  0.0000E+00  0.0000E+00  0.0000E+00  0.0000E+00
    -32.922  0.0000E+00  0.0000E+00  0.0000E+00  0.0000E+00  0.0000E+00  0.0000E+00  0.0000E+00  0.0000E+00  0.0000E+00
    -32.770  0.0000E+00  0.0000E+00  0.0000E+00  0.0000E+00  0.0000E+00  0.0000E+00  0.0000E+00  0.0000E+00  0.0000E+00
    -32.617  0.0000E+00  0.0000E+00  0.0000E+00  0.0000E+00  0.0000E+00  0.0000E+00  0.0000E+00  0.0000E+00  0.0000E+00
    -32.465  0.0000E+00  0.0000E+00  0.0000E+00  0.0000E+00  0.0000E+00  0.0000E+00  0.0000E+00  0.0000E+00  0.0000E+00
    -32.312  0.0000E+00  0.0000E+00  0.0000E+00  0.0000E+00  0.0000E+00  0.0000E+00  0.0000E+00  0.0000E+00  0.0000E+00
    -32.160  0.0000E+00  0.0000E+00  0.0000E+00  0.0000E+00  0.0000E+00  0.0000E+00  0.0000E+00  0.0000E+00  0.0000E+00
    -32.007  0.0000E+00  0.0000E+00  0.0000E+00  0.0000E+00  0.0000E+00  0.0000E+00  0.0000E+00  0.0000E+00  0.0000E+00
    -31.854  0.0000E+00  0.0000E+00  0.0000E+00  0.0000E+00  0.0000E+00  0.0000E+00  0.0000E+00  0.0000E+00  0.0000E+00
    -31.702  0.0000E+00  0.0000E+00  0.0000E+00  0.0000E+00  0.0000E+00  0.0000E+00  0.0000E+00  0.0000E+00  0.0000E+00
    -31.549  0.0000E+00  0.0000E+00  0.0000E+00  0.0000E+00  0.0000E+00  0.0000E+00  0.0000E+00  0.0000E+00  0.0000E+00
    -31.397  0.0000E+00  0.0000E+00  0.0000E+00  0.0000E+00  0.0000E+00  0.0000E+00  0.0000E+00  0.0000E+00  0.0000E+00
    -31.244  0.0000E+00  0.0000E+00  0.0000E+00  0.0000E+00  0.0000E+00  0.0000E+00  0.0000E+00  0.0000E+00  0.0000E+00
    -31.092  0.0000E+00  0.0000E+00  0.0000E+00  0.0000E+00  0.0000E+00  0.0000E+00  0.0000E+00  0.0000E+00  0.0000E+00
    -30.939  0.0000E+00  0.0000E+00  0.0000E+00  0.0000E+00  0.0000E+00  0.0000E+00  0.0000E+00  0.0000E+00  0.0000E+00
    -30.786  0.0000E+00  0.0000E+00  0.0000E+00  0.0000E+00  0.0000E+00  0.0000E+00  0.0000E+00  0.0000E+00  0.0000E+00
    -30.634  0.0000E+00  0.0000E+00  0.0000E+00  0.0000E+00  0.0000E+00  0.0000E+00  0.0000E+00  0.0000E+00  0.0000E+00
    -30.481  0.0000E+00  0.0000E+00  0.0000E+00  0.0000E+00  0.0000E+00  0.0000E+00  0.0000E+00  0.0000E+00  0.0000E+00
    -30.329  0.0000E+00  0.0000E+00  0.0000E+00  0.0000E+00  0.0000E+00  0.0000E+00  0.0000E+00  0.0000E+00  0.0000E+00
    -30.176  0.0000E+00  0.0000E+00  0.0000E+00  0.0000E+00  0.0000E+00  0.0000E+00  0.0000E+00  0.0000E+00  0.0000E+00
    -30.024  0.0000E+00  0.0000E+00  0.0000E+00  0.0000E+00  0.0000E+00  0.0000E+00  0.0000E+00  0.0000E+00  0.0000E+00
    -29.871  0.0000E+00  0.0000E+00  0.0000E+00  0.0000E+00  0.0000E+00  0.0000E+00  0.0000E+00  0.0000E+00  0.0000E+00
    -29.718  0.0000E+00  0.0000E+00  0.0000E+00  0.0000E+00  0.0000E+00  0.0000E+00  0.0000E+00  0.0000E+00  0.0000E+00
    -29.566  0.0000E+00  0.0000E+00  0.0000E+00  0.0000E+00  0.0000E+00  0.0000E+00  0.0000E+00  0.0000E+00  0.0000E+00
    -29.413  0.0000E+00  0.0000E+00  0.0000E+00  0.0000E+00  0.0000E+00  0.0000E+00  0.0000E+00  0.0000E+00  0.0000E+00
    -29.261  0.0000E+00  0.0000E+00  0.0000E+00  0.0000E+00  0.0000E+00  0.0000E+00  0.0000E+00  0.0000E+00  0.0000E+00
    -29.108  0.0000E+00  0.0000E+00  0.0000E+00  0.0000E+00  0.0000E+00  0.0000E+00  0.0000E+00  0.0000E+00  0.0000E+00
    -28.956  0.0000E+00  0.0000E+00  0.0000E+00  0.0000E+00  0.0000E+00  0.0000E+00  0.0000E+00  0.0000E+00  0.0000E+00
    -28.803  0.0000E+00  0.0000E+00  0.0000E+00  0.0000E+00  0.0000E+00  0.0000E+00  0.0000E+00  0.0000E+00  0.0000E+00
    -28.650  0.0000E+00  0.0000E+00  0.0000E+00  0.0000E+00  0.0000E+00  0.0000E+00  0.0000E+00  0.0000E+00  0.0000E+00
    -28.498  0.0000E+00  0.0000E+00  0.0000E+00  0.0000E+00  0.0000E+00  0.0000E+00  0.0000E+00  0.0000E+00  0.0000E+00
    -28.345  0.0000E+00  0.0000E+00  0.0000E+00  0.0000E+00  0.0000E+00  0.0000E+00  0.0000E+00  0.0000E+00  0.0000E+00
    -28.193  0.0000E+00  0.0000E+00  0.0000E+00  0.0000E+00  0.0000E+00  0.0000E+00  0.0000E+00  0.0000E+00  0.0000E+00
    -28.040  0.0000E+00  0.0000E+00  0.0000E+00  0.0000E+00  0.0000E+00  0.0000E+00  0.0000E+00  0.0000E+00  0.0000E+00
    -27.888  0.0000E+00  0.0000E+00  0.0000E+00  0.0000E+00  0.0000E+00  0.0000E+00  0.0000E+00  0.0000E+00  0.0000E+00
    -27.735  0.0000E+00  0.0000E+00  0.0000E+00  0.0000E+00  0.0000E+00  0.0000E+00  0.0000E+00  0.0000E+00  0.0000E+00
    -27.583  0.0000E+00  0.0000E+00  0.0000E+00  0.0000E+00  0.0000E+00  0.0000E+00  0.0000E+00  0.0000E+00  0.0000E+00
    -27.430  0.0000E+00  0.0000E+00  0.0000E+00  0.0000E+00  0.0000E+00  0.0000E+00  0.0000E+00  0.0000E+00  0.0000E+00
    -27.277  0.0000E+00  0.0000E+00  0.0000E+00  0.0000E+00  0.0000E+00  0.0000E+00  0.0000E+00  0.0000E+00  0.0000E+00
    -27.125  0.0000E+00  0.0000E+00  0.0000E+00  0.0000E+00  0.0000E+00  0.0000E+00  0.0000E+00  0.0000E+00  0.0000E+00
    -26.972  0.0000E+00  0.0000E+00  0.0000E+00  0.0000E+00  0.0000E+00  0.0000E+00  0.0000E+00  0.0000E+00  0.0000E+00
    -26.820  0.0000E+00  0.0000E+00  0.0000E+00  0.0000E+00  0.0000E+00  0.0000E+00  0.0000E+00  0.0000E+00  0.0000E+00
    -26.667  0.0000E+00  0.0000E+00  0.0000E+00  0.0000E+00  0.0000E+00  0.0000E+00  0.0000E+00  0.0000E+00  0.0000E+00
    -26.515  0.0000E+00  0.0000E+00  0.0000E+00  0.0000E+00  0.0000E+00  0.0000E+00  0.0000E+00  0.0000E+00  0.0000E+00
    -26.362  0.0000E+00  0.0000E+00  0.0000E+00  0.0000E+00  0.0000E+00  0.0000E+00  0.0000E+00  0.0000E+00  0.0000E+00
    -26.209  0.0000E+00  0.0000E+00  0.0000E+00  0.0000E+00  0.0000E+00  0.0000E+00  0.0000E+00  0.0000E+00  0.0000E+00
    -26.057  0.0000E+00  0.0000E+00  0.0000E+00  0.0000E+00  0.0000E+00  0.0000E+00  0.0000E+00  0.0000E+00  0.0000E+00
    -25.904  0.0000E+00  0.0000E+00  0.0000E+00  0.0000E+00  0.0000E+00  0.0000E+00  0.0000E+00  0.0000E+00  0.0000E+00
    -25.752  0.0000E+00  0.0000E+00  0.0000E+00  0.0000E+00  0.0000E+00  0.0000E+00  0.0000E+00  0.0000E+00  0.0000E+00
    -25.599  0.0000E+00  0.0000E+00  0.0000E+00  0.0000E+00  0.0000E+00  0.0000E+00  0.0000E+00  0.0000E+00  0.0000E+00
    -25.447  0.0000E+00  0.0000E+00  0.0000E+00  0.0000E+00  0.0000E+00  0.0000E+00  0.0000E+00  0.0000E+00  0.0000E+00
    -25.294  0.0000E+00  0.0000E+00  0.0000E+00  0.0000E+00  0.0000E+00  0.0000E+00  0.0000E+00  0.0000E+00  0.0000E+00
    -25.141  0.0000E+00  0.0000E+00  0.0000E+00  0.0000E+00  0.0000E+00  0.0000E+00  0.0000E+00  0.0000E+00  0.0000E+00
    -24.989  0.0000E+00  0.0000E+00  0.0000E+00  0.0000E+00  0.0000E+00  0.0000E+00  0.0000E+00  0.0000E+00  0.0000E+00
    -24.836  0.0000E+00  0.0000E+00  0.0000E+00  0.0000E+00  0.0000E+00  0.0000E+00  0.0000E+00  0.0000E+00  0.0000E+00
    -24.684  0.0000E+00  0.0000E+00  0.0000E+00  0.0000E+00  0.0000E+00  0.0000E+00  0.0000E+00  0.0000E+00  0.0000E+00
    -24.531  0.0000E+00  0.0000E+00  0.0000E+00  0.0000E+00  0.0000E+00  0.0000E+00  0.0000E+00  0.0000E+00  0.0000E+00
    -24.379  0.0000E+00  0.0000E+00  0.0000E+00  0.0000E+00  0.0000E+00  0.0000E+00  0.0000E+00  0.0000E+00  0.0000E+00
    -24.226  0.0000E+00  0.0000E+00  0.0000E+00  0.0000E+00  0.0000E+00  0.0000E+00  0.0000E+00  0.0000E+00  0.0000E+00
    -24.073  0.0000E+00  0.0000E+00  0.0000E+00  0.0000E+00  0.0000E+00  0.0000E+00  0.0000E+00  0.0000E+00  0.0000E+00
    -23.921  0.0000E+00  0.0000E+00  0.0000E+00  0.0000E+00  0.0000E+00  0.0000E+00  0.0000E+00  0.0000E+00  0.0000E+00
    -23.768  0.0000E+00  0.0000E+00  0.0000E+00  0.0000E+00  0.0000E+00  0.0000E+00  0.0000E+00  0.0000E+00  0.0000E+00
    -23.616  0.0000E+00  0.0000E+00  0.0000E+00  0.0000E+00  0.0000E+00  0.0000E+00  0.0000E+00  0.0000E+00  0.0000E+00
    -23.463  0.0000E+00  0.0000E+00  0.0000E+00  0.0000E+00  0.0000E+00  0.0000E+00  0.0000E+00  0.0000E+00  0.0000E+00
    -23.311  0.0000E+00  0.0000E+00  0.0000E+00  0.0000E+00  0.0000E+00  0.0000E+00  0.0000E+00  0.0000E+00  0.0000E+00
    -23.158  0.0000E+00  0.0000E+00  0.0000E+00  0.0000E+00  0.0000E+00  0.0000E+00  0.0000E+00  0.0000E+00  0.0000E+00
    -23.005  0.0000E+00  0.0000E+00  0.0000E+00  0.0000E+00  0.0000E+00  0.0000E+00  0.0000E+00  0.0000E+00  0.0000E+00
    -22.853  0.0000E+00  0.0000E+00  0.0000E+00  0.0000E+00  0.0000E+00  0.0000E+00  0.0000E+00  0.0000E+00  0.0000E+00
    -22.700  0.0000E+00  0.0000E+00  0.0000E+00  0.0000E+00  0.0000E+00  0.0000E+00  0.0000E+00  0.0000E+00  0.0000E+00
    -22.548  0.0000E+00  0.0000E+00  0.0000E+00  0.0000E+00  0.0000E+00  0.0000E+00  0.0000E+00  0.0000E+00  0.0000E+00
    -22.395  0.0000E+00  0.0000E+00  0.0000E+00  0.0000E+00  0.0000E+00  0.0000E+00  0.0000E+00  0.0000E+00  0.0000E+00
    -22.243  0.0000E+00  0.0000E+00  0.0000E+00  0.0000E+00  0.0000E+00  0.0000E+00  0.0000E+00  0.0000E+00  0.0000E+00
    -22.090  0.0000E+00  0.0000E+00  0.0000E+00  0.0000E+00  0.0000E+00  0.0000E+00  0.0000E+00  0.0000E+00  0.0000E+00
    -21.937  0.0000E+00  0.0000E+00  0.0000E+00  0.0000E+00  0.0000E+00  0.0000E+00  0.0000E+00  0.0000E+00  0.0000E+00
    -21.785  0.0000E+00  0.0000E+00  0.0000E+00  0.0000E+00  0.0000E+00  0.0000E+00  0.0000E+00  0.0000E+00  0.0000E+00
    -21.632  0.0000E+00  0.0000E+00  0.0000E+00  0.0000E+00  0.0000E+00  0.0000E+00  0.0000E+00  0.0000E+00  0.0000E+00
    -21.480  0.0000E+00  0.0000E+00  0.0000E+00  0.0000E+00  0.0000E+00  0.0000E+00  0.0000E+00  0.0000E+00  0.0000E+00
    -21.327  0.2486E-02  0.1362E-03  0.2723E-03  0.1095E-03  0.1640E+01  0.9810E+00  0.1308E+01  0.8913E+00  0.1426E+01
    -21.175  0.0000E+00  0.0000E+00  0.0000E+00  0.0000E+00  0.0000E+00  0.0000E+00  0.0000E+00  0.0000E+00  0.0000E+00
    -21.022  0.0000E+00  0.0000E+00  0.0000E+00  0.0000E+00  0.0000E+00  0.0000E+00  0.0000E+00  0.0000E+00  0.0000E+00
    -20.869  0.0000E+00  0.0000E+00  0.0000E+00  0.0000E+00  0.0000E+00  0.0000E+00  0.0000E+00  0.0000E+00  0.0000E+00
    -20.717  0.0000E+00  0.0000E+00  0.0000E+00  0.0000E+00  0.0000E+00  0.0000E+00  0.0000E+00  0.0000E+00  0.0000E+00
    -20.564  0.0000E+00  0.0000E+00  0.0000E+00  0.0000E+00  0.0000E+00  0.0000E+00  0.0000E+00  0.0000E+00  0.0000E+00
    -20.412  0.0000E+00  0.0000E+00  0.0000E+00  0.0000E+00  0.0000E+00  0.0000E+00  0.0000E+00  0.0000E+00  0.0000E+00
    -20.259  0.0000E+00  0.0000E+00  0.0000E+00  0.0000E+00  0.0000E+00  0.0000E+00  0.0000E+00  0.0000E+00  0.0000E+00
    -20.107  0.0000E+00  0.0000E+00  0.0000E+00  0.0000E+00  0.0000E+00  0.0000E+00  0.0000E+00  0.0000E+00  0.0000E+00
    -19.954  0.0000E+00  0.0000E+00  0.0000E+00  0.0000E+00  0.0000E+00  0.0000E+00  0.0000E+00  0.0000E+00  0.0000E+00
    -19.801  0.0000E+00  0.0000E+00  0.0000E+00  0.0000E+00  0.0000E+00  0.0000E+00  0.0000E+00  0.0000E+00  0.0000E+00
    -19.649  0.0000E+00  0.0000E+00  0.0000E+00  0.0000E+00  0.0000E+00  0.0000E+00  0.0000E+00  0.0000E+00  0.0000E+00
    -19.496  0.0000E+00  0.0000E+00  0.0000E+00  0.0000E+00  0.0000E+00  0.0000E+00  0.0000E+00  0.0000E+00  0.0000E+00
    -19.344  0.0000E+00  0.0000E+00  0.0000E+00  0.0000E+00  0.0000E+00  0.0000E+00  0.0000E+00  0.0000E+00  0.0000E+00
    -19.191  0.0000E+00  0.0000E+00  0.0000E+00  0.0000E+00  0.0000E+00  0.0000E+00  0.0000E+00  0.0000E+00  0.0000E+00
    -19.039  0.0000E+00  0.0000E+00  0.0000E+00  0.0000E+00  0.0000E+00  0.0000E+00  0.0000E+00  0.0000E+00  0.0000E+00
    -18.886  0.0000E+00  0.0000E+00  0.0000E+00  0.0000E+00  0.0000E+00  0.0000E+00  0.0000E+00  0.0000E+00  0.0000E+00
    -18.734  0.0000E+00  0.0000E+00  0.0000E+00  0.0000E+00  0.0000E+00  0.0000E+00  0.0000E+00  0.0000E+00  0.0000E+00
    -18.581  0.0000E+00  0.0000E+00  0.0000E+00  0.0000E+00  0.0000E+00  0.0000E+00  0.0000E+00  0.0000E+00  0.0000E+00
    -18.428  0.0000E+00  0.0000E+00  0.0000E+00  0.0000E+00  0.0000E+00  0.0000E+00  0.0000E+00  0.0000E+00  0.0000E+00
    -18.276  0.0000E+00  0.0000E+00  0.0000E+00  0.0000E+00  0.0000E+00  0.0000E+00  0.0000E+00  0.0000E+00  0.0000E+00
    -18.123  0.0000E+00  0.0000E+00  0.0000E+00  0.0000E+00  0.0000E+00  0.0000E+00  0.0000E+00  0.0000E+00  0.0000E+00
    -17.971  0.0000E+00  0.0000E+00  0.0000E+00  0.0000E+00  0.0000E+00  0.0000E+00  0.0000E+00  0.0000E+00  0.0000E+00
    -17.818  0.0000E+00  0.0000E+00  0.0000E+00  0.0000E+00  0.0000E+00  0.0000E+00  0.0000E+00  0.0000E+00  0.0000E+00
    -17.666  0.0000E+00  0.0000E+00  0.0000E+00  0.0000E+00  0.0000E+00  0.0000E+00  0.0000E+00  0.0000E+00  0.0000E+00
    -17.513  0.0000E+00  0.0000E+00  0.0000E+00  0.0000E+00  0.0000E+00  0.0000E+00  0.0000E+00  0.0000E+00  0.0000E+00
    -17.360  0.0000E+00  0.0000E+00  0.0000E+00  0.0000E+00  0.0000E+00  0.0000E+00  0.0000E+00  0.0000E+00  0.0000E+00
    -17.208  0.0000E+00  0.0000E+00  0.0000E+00  0.0000E+00  0.0000E+00  0.0000E+00  0.0000E+00  0.0000E+00  0.0000E+00
    -17.055  0.0000E+00  0.0000E+00  0.0000E+00  0.0000E+00  0.0000E+00  0.0000E+00  0.0000E+00  0.0000E+00  0.0000E+00
    -16.903  0.0000E+00  0.0000E+00  0.0000E+00  0.0000E+00  0.0000E+00  0.0000E+00  0.0000E+00  0.0000E+00  0.0000E+00
    -16.750  0.0000E+00  0.0000E+00  0.0000E+00  0.0000E+00  0.0000E+00  0.0000E+00  0.0000E+00  0.0000E+00  0.0000E+00
    -16.598  0.0000E+00  0.0000E+00  0.0000E+00  0.0000E+00  0.0000E+00  0.0000E+00  0.0000E+00  0.0000E+00  0.0000E+00
    -16.445  0.0000E+00  0.0000E+00  0.0000E+00  0.0000E+00  0.0000E+00  0.0000E+00  0.0000E+00  0.0000E+00  0.0000E+00
    -16.292  0.0000E+00  0.0000E+00  0.0000E+00  0.0000E+00  0.0000E+00  0.0000E+00  0.0000E+00  0.0000E+00  0.0000E+00
    -16.140  0.0000E+00  0.0000E+00  0.0000E+00  0.0000E+00  0.0000E+00  0.0000E+00  0.0000E+00  0.0000E+00  0.0000E+00
    -15.987  0.0000E+00  0.0000E+00  0.0000E+00  0.0000E+00  0.0000E+00  0.0000E+00  0.0000E+00  0.0000E+00  0.0000E+00
    -15.835  0.0000E+00  0.0000E+00  0.0000E+00  0.0000E+00  0.0000E+00  0.0000E+00  0.0000E+00  0.0000E+00  0.0000E+00
    -15.682  0.0000E+00  0.0000E+00  0.0000E+00  0.0000E+00  0.0000E+00  0.0000E+00  0.0000E+00  0.0000E+00  0.0000E+00
    -15.530  0.0000E+00  0.0000E+00  0.0000E+00  0.0000E+00  0.0000E+00  0.0000E+00  0.0000E+00  0.0000E+00  0.0000E+00
    -15.377  0.0000E+00  0.0000E+00  0.0000E+00  0.0000E+00  0.0000E+00  0.0000E+00  0.0000E+00  0.0000E+00  0.0000E+00
    -15.224  0.0000E+00  0.0000E+00  0.0000E+00  0.0000E+00  0.0000E+00  0.0000E+00  0.0000E+00  0.0000E+00  0.0000E+00
    -15.072  0.0000E+00  0.0000E+00  0.0000E+00  0.0000E+00  0.0000E+00  0.0000E+00  0.0000E+00  0.0000E+00  0.0000E+00
    -14.919  0.0000E+00  0.0000E+00  0.0000E+00  0.0000E+00  0.0000E+00  0.0000E+00  0.0000E+00  0.0000E+00  0.0000E+00
    -14.767  0.0000E+00  0.0000E+00  0.0000E+00  0.0000E+00  0.0000E+00  0.0000E+00  0.0000E+00  0.0000E+00  0.0000E+00
    -14.614  0.1496E-01  0.2016E-03  0.6661E-03  0.3606E-03  0.6380E-04  0.3407E-04  0.3580E-04  0.6035E-04  0.3527E-04
    -14.462  0.4956E-02  0.1228E-02  0.1554E-02  0.9417E-03  0.2266E-03  0.1066E-02  0.1576E-03  0.8865E-03  0.1714E-03
    -14.309  0.0000E+00  0.0000E+00  0.0000E+00  0.0000E+00  0.0000E+00  0.0000E+00  0.0000E+00  0.0000E+00  0.0000E+00
    -14.156  0.0000E+00  0.0000E+00  0.0000E+00  0.0000E+00  0.0000E+00  0.0000E+00  0.0000E+00  0.0000E+00  0.0000E+00
    -14.004  0.0000E+00  0.0000E+00  0.0000E+00  0.0000E+00  0.0000E+00  0.0000E+00  0.0000E+00  0.0000E+00  0.0000E+00
    -13.851  0.0000E+00  0.0000E+00  0.0000E+00  0.0000E+00  0.0000E+00  0.0000E+00  0.0000E+00  0.0000E+00  0.0000E+00
    -13.699  0.0000E+00  0.0000E+00  0.0000E+00  0.0000E+00  0.0000E+00  0.0000E+00  0.0000E+00  0.0000E+00  0.0000E+00
    -13.546  0.0000E+00  0.0000E+00  0.0000E+00  0.0000E+00  0.0000E+00  0.0000E+00  0.0000E+00  0.0000E+00  0.0000E+00
    -13.394  0.0000E+00  0.0000E+00  0.0000E+00  0.0000E+00  0.0000E+00  0.0000E+00  0.0000E+00  0.0000E+00  0.0000E+00
    -13.241  0.0000E+00  0.0000E+00  0.0000E+00  0.0000E+00  0.0000E+00  0.0000E+00  0.0000E+00  0.0000E+00  0.0000E+00
    -13.088  0.0000E+00  0.0000E+00  0.0000E+00  0.0000E+00  0.0000E+00  0.0000E+00  0.0000E+00  0.0000E+00  0.0000E+00
    -12.936  0.0000E+00  0.0000E+00  0.0000E+00  0.0000E+00  0.0000E+00  0.0000E+00  0.0000E+00  0.0000E+00  0.0000E+00
    -12.783  0.0000E+00  0.0000E+00  0.0000E+00  0.0000E+00  0.0000E+00  0.0000E+00  0.0000E+00  0.0000E+00  0.0000E+00
    -12.631  0.0000E+00  0.0000E+00  0.0000E+00  0.0000E+00  0.0000E+00  0.0000E+00  0.0000E+00  0.0000E+00  0.0000E+00
    -12.478  0.0000E+00  0.0000E+00  0.0000E+00  0.0000E+00  0.0000E+00  0.0000E+00  0.0000E+00  0.0000E+00  0.0000E+00
    -12.326  0.0000E+00  0.0000E+00  0.0000E+00  0.0000E+00  0.0000E+00  0.0000E+00  0.0000E+00  0.0000E+00  0.0000E+00
    -12.173  0.0000E+00  0.0000E+00  0.0000E+00  0.0000E+00  0.0000E+00  0.0000E+00  0.0000E+00  0.0000E+00  0.0000E+00
    -12.020  0.0000E+00  0.0000E+00  0.0000E+00  0.0000E+00  0.0000E+00  0.0000E+00  0.0000E+00  0.0000E+00  0.0000E+00
    -11.868  0.0000E+00  0.0000E+00  0.0000E+00  0.0000E+00  0.0000E+00  0.0000E+00  0.0000E+00  0.0000E+00  0.0000E+00
    -11.715  0.0000E+00  0.0000E+00  0.0000E+00  0.0000E+00  0.0000E+00  0.0000E+00  0.0000E+00  0.0000E+00  0.0000E+00
    -11.563  0.0000E+00  0.0000E+00  0.0000E+00  0.0000E+00  0.0000E+00  0.0000E+00  0.0000E+00  0.0000E+00  0.0000E+00
    -11.410  0.0000E+00  0.0000E+00  0.0000E+00  0.0000E+00  0.0000E+00  0.0000E+00  0.0000E+00  0.0000E+00  0.0000E+00
    -11.258  0.0000E+00  0.0000E+00  0.0000E+00  0.0000E+00  0.0000E+00  0.0000E+00  0.0000E+00  0.0000E+00  0.0000E+00
    -11.105  0.0000E+00  0.0000E+00  0.0000E+00  0.0000E+00  0.0000E+00  0.0000E+00  0.0000E+00  0.0000E+00  0.0000E+00
    -10.952  0.0000E+00  0.0000E+00  0.0000E+00  0.0000E+00  0.0000E+00  0.0000E+00  0.0000E+00  0.0000E+00  0.0000E+00
    -10.800  0.0000E+00  0.0000E+00  0.0000E+00  0.0000E+00  0.0000E+00  0.0000E+00  0.0000E+00  0.0000E+00  0.0000E+00
    -10.647  0.0000E+00  0.0000E+00  0.0000E+00  0.0000E+00  0.0000E+00  0.0000E+00  0.0000E+00  0.0000E+00  0.0000E+00