unknown system                          
   1.00000000000000     
     4.162547    0.000000    0.000000
    -2.081273    3.604871    0.000000
     0.000000    0.000000    5.183944
   Ge   Sr
   2   1
Direct
  0.333333  0.666667  0.404334
  0.666667  0.333333  0.595666
  0.000000  0.000000  0.000000
 
   24   24   30
 0.47056     0.53549     0.67240     0.77973     0.82330     0.79705     0.63473     0.28044     0.86279E-01 0.51971E-01
 0.66094E-01 0.99102E-01 0.11773     0.99102E-01 0.66094E-01 0.51971E-01 0.86279E-01 0.28044     0.63473     0.79705    
 0.82330     0.77973     0.67240     0.53549     0.53549     0.53549     0.63519     0.74879     0.81367     0.81839    
 0.73045     0.44366     0.14155     0.59087E-01 0.56803E-01 0.86535E-01 0.11830     0.11843     0.86439E-01 0.56874E-01
 0.59048E-01 0.14156     0.44365     0.73046     0.81839     0.81367     0.74880     0.63518     0.67240     0.63519    
 0.67239     0.74880     0.80784     0.82326     0.76956     0.55760     0.21558     0.74522E-01 0.55260E-01 0.79027E-01
 0.12141     0.14309     0.12142     0.78999E-01 0.55235E-01 0.74573E-01 0.21554     0.55761     0.76954     0.82327    
 0.80783     0.74880     0.77973     0.74879     0.74880     0.77974     0.81367     0.82325     0.77994     0.60904    
 0.27819     0.92961E-01 0.57808E-01 0.75119E-01 0.12626     0.16987     0.17057     0.12590     0.75308E-01 0.57714E-01
 0.93015E-01 0.27811     0.60912     0.77990     0.82327     0.81366     0.82329     0.81367     0.80784     0.81367    
 0.82328     0.81838     0.76959     0.60907     0.30196     0.10583     0.60969E-01 0.73968E-01 0.12902     0.19725    
 0.22403     0.19708     0.12901     0.73999E-01 0.60964E-01 0.10585     0.30194     0.60912     0.76954     0.81839    
 0.79705     0.81839     0.82326     0.82325     0.81839     0.79709     0.73045     0.55746     0.27819     0.10585    
 0.62393E-01 0.73595E-01 0.13062     0.21654     0.27362     0.27333     0.21699     0.13037     0.73652E-01 0.62378E-01
 0.10586     0.27809     0.55763     0.73045     0.63473     0.73045     0.76956     0.77993     0.76960     0.73043    
 0.63460     0.44371     0.21572     0.92935E-01 0.60983E-01 0.73646E-01 0.13083     0.22676     0.30709     0.33528    
 0.30709     0.22680     0.13089     0.73614E-01 0.60974E-01 0.93009E-01 0.21554     0.44366     0.28039     0.44370    
 0.55755     0.60908     0.60903     0.55752     0.44369     0.28064     0.14151     0.74490E-01 0.57772E-01 0.73945E-01
 0.13047     0.22676     0.31848     0.37096     0.37016     0.31870     0.22651     0.13061     0.73924E-01 0.57751E-01
 0.74544E-01 0.14160     0.86277E-01 0.14156     0.21558     0.27819     0.30196     0.27818     0.21568     0.14156    
 0.86140E-01 0.59064E-01 0.55344E-01 0.75224E-01 0.12906     0.21695     0.30698     0.37020     0.39332     0.37076    
 0.30702     0.21680     0.12905     0.75298E-01 0.55237E-01 0.59050E-01 0.52002E-01 0.59058E-01 0.74547E-01 0.92935E-01
 0.10586     0.10583     0.92979E-01 0.74433E-01 0.59085E-01 0.52116E-01 0.56851E-01 0.78722E-01 0.12620     0.19676    
 0.27362     0.33554     0.37080     0.36977     0.33589     0.27315     0.19729     0.12577     0.79074E-01 0.56828E-01
 0.66082E-01 0.56813E-01 0.55257E-01 0.57806E-01 0.60975E-01 0.62377E-01 0.60972E-01 0.57806E-01 0.55348E-01 0.56811E-01
 0.65814E-01 0.86545E-01 0.12182     0.17037     0.22416     0.27325     0.30690     0.31906     0.30697     0.27342    
 0.22408     0.17056     0.12140     0.86461E-01 0.99043E-01 0.86577E-01 0.78982E-01 0.75164E-01 0.73921E-01 0.73657E-01
 0.73629E-01 0.73916E-01 0.75186E-01 0.78841E-01 0.86483E-01 0.99593E-01 0.11839     0.14241     0.17020     0.19721    
 0.21679     0.22660     0.22663     0.21689     0.19703     0.17004     0.14298     0.11850     0.11778     0.11826    
 0.12147     0.12618     0.12912     0.13048     0.13086     0.13057     0.12912     0.12598     0.12190     0.11841    
 0.11703     0.11841     0.12190     0.12598     0.12912     0.13057     0.13086     0.13048     0.12912     0.12618    
 0.12147     0.11826     0.99043E-01 0.11850     0.14298     0.17004     0.19703     0.21689     0.22663     0.22660    
 0.21679     0.19721     0.17020     0.14241     0.11839     0.99593E-01 0.86483E-01 0.78841E-01 0.75186E-01 0.73916E-01
 0.73629E-01 0.73657E-01 0.73921E-01 0.75164E-01 0.78982E-01 0.86577E-01 0.66082E-01 0.86461E-01 0.12140     0.17056    
 0.22408     0.27342     0.30697     0.31906     0.30690     0.27325     0.22416     0.17037     0.12182     0.86545E-01
 0.65814E-01 0.56811E-01 0.55348E-01 0.57806E-01 0.60972E-01 0.62377E-01 0.60975E-01 0.57806E-01 0.55257E-01 0.56813E-01
 0.52002E-01 0.56828E-01 0.79074E-01 0.12577     0.19729     0.27315     0.33589     0.36977     0.37080     0.33554    
 0.27362     0.19676     0.12620     0.78722E-01 0.56851E-01 0.52116E-01 0.59085E-01 0.74433E-01 0.92979E-01 0.10583    
 0.10586     0.92935E-01 0.74547E-01 0.59058E-01 0.86277E-01 0.59050E-01 0.55237E-01 0.75298E-01 0.12905     0.21680    
 0.30702     0.37076     0.39332     0.37020     0.30698     0.21695     0.12906     0.75224E-01 0.55344E-01 0.59064E-01
 0.86140E-01 0.14156     0.21568     0.27818     0.30196     0.27819     0.21558     0.14156     0.28039     0.14160    
 0.74544E-01 0.57751E-01 0.73924E-01 0.13061     0.22651     0.31870     0.37016     0.37096     0.31848     0.22676    
 0.13047     0.73945E-01 0.57772E-01 0.74490E-01 0.14151     0.28064     0.44369     0.55752     0.60903     0.60908    
 0.55755     0.44370     0.63473     0.44366     0.21554     0.93009E-01 0.60974E-01 0.73614E-01 0.13089     0.22680    
 0.30709     0.33528     0.30709     0.22676     0.13083     0.73646E-01 0.60983E-01 0.92935E-01 0.21572     0.44371    
 0.63460     0.73043     0.76960     0.77993     0.76956     0.73045     0.79705     0.73045     0.55763     0.27809    
 0.10586     0.62378E-01 0.73652E-01 0.13037     0.21699     0.27333     0.27362     0.21654     0.13062     0.73595E-01
 0.62393E-01 0.10585     0.27819     0.55746     0.73045     0.79709     0.81839     0.82325     0.82326     0.81839    
 0.82329     0.81839     0.76954     0.60912     0.30194     0.10585     0.60964E-01 0.73999E-01 0.12901     0.19708    
 0.22403     0.19725     0.12902     0.73968E-01 0.60969E-01 0.10583     0.30196     0.60907     0.76959     0.81838    
 0.82328     0.81367     0.80784     0.81367     0.77973     0.81366     0.82327     0.77990     0.60912     0.27811    
 0.93015E-01 0.57714E-01 0.75308E-01 0.12590     0.17057     0.16987     0.12626     0.75119E-01 0.57808E-01 0.92961E-01
 0.27819     0.60904     0.77994     0.82325     0.81367     0.77974     0.74880     0.74879     0.67240     0.74880    
 0.80783     0.82327     0.76954     0.55761     0.21554     0.74573E-01 0.55235E-01 0.78999E-01 0.12142     0.14309    
 0.12141     0.79027E-01 0.55260E-01 0.74522E-01 0.21558     0.55760     0.76956     0.82326     0.80784     0.74880    
 0.67239     0.63519     0.53549     0.63518     0.74880     0.81367     0.81839     0.73046     0.44365     0.14156    
 0.59048E-01 0.56874E-01 0.86439E-01 0.11843     0.11830     0.86535E-01 0.56803E-01 0.59087E-01 0.14155     0.44366    
 0.73045     0.81839     0.81367     0.74879     0.63519     0.53549     0.53886     0.59300     0.70500     0.79226    
 0.82484     0.78909     0.60862     0.25404     0.81119E-01 0.53407E-01 0.71925E-01 0.10941     0.12966     0.10938    
 0.71919E-01 0.53425E-01 0.81106E-01 0.25405     0.60860     0.78910     0.82484     0.79225     0.70500     0.59300    
 0.59300     0.59300     0.67411     0.76612     0.81770     0.81393     0.71418     0.41516     0.12941     0.55382E-01
 0.53998E-01 0.82169E-01 0.11093     0.11143     0.81868E-01 0.54161E-01 0.55274E-01 0.12952     0.41503     0.71425    
 0.81390     0.81770     0.76612     0.67410     0.70500     0.67530     0.70500     0.76612     0.81282     0.82000    
 0.75734     0.53357     0.19919     0.67421E-01 0.48074E-01 0.65992E-01 0.98623E-01 0.11492     0.98644E-01 0.65952E-01
 0.48070E-01 0.67446E-01 0.19921     0.53353     0.75734     0.82000     0.81281     0.76613     0.79226     0.76823    
 0.76824     0.79225     0.81770     0.81998     0.76876     0.58791     0.26082     0.83950E-01 0.48194E-01 0.57461E-01
 0.91583E-01 0.12020     0.12094     0.91132E-01 0.57691E-01 0.48076E-01 0.84040E-01 0.26065     0.58806     0.76870    
 0.82002     0.81769     0.82484     0.82000     0.81617     0.82001     0.82482     0.81392     0.75737     0.58801    
 0.28458     0.96157E-01 0.50135E-01 0.54037E-01 0.86823E-01 0.12826     0.14429     0.12818     0.86816E-01 0.54049E-01
 0.50129E-01 0.96185E-01 0.28456     0.58803     0.75731     0.81393     0.78910     0.81580     0.82344     0.82342    
 0.81580     0.78914     0.71421     0.53340     0.26078     0.96167E-01 0.51231E-01 0.52732E-01 0.84747E-01 0.13424    
 0.16785     0.16754     0.13457     0.84561E-01 0.52791E-01 0.51209E-01 0.96176E-01 0.26071     0.53360     0.71418    
 0.60862     0.71278     0.75755     0.76977     0.75758     0.71279     0.60847     0.41519     0.19932     0.83943E-01
 0.50155E-01 0.52793E-01 0.83929E-01 0.13806     0.18480     0.20192     0.18481     0.13808     0.83976E-01 0.52766E-01
 0.50151E-01 0.83990E-01 0.19916     0.41516     0.25400     0.40638     0.52003     0.57408     0.57409     0.51997    
 0.40634     0.25421     0.12942     0.67398E-01 0.48147E-01 0.53975E-01 0.84652E-01 0.13802     0.19104     0.22286    
 0.22252     0.19110     0.13791     0.84701E-01 0.53976E-01 0.48145E-01 0.67448E-01 0.12945     0.81118E-01 0.12888    
 0.19138     0.24486     0.26544     0.24481     0.19147     0.12893     0.80992E-01 0.55322E-01 0.48140E-01 0.57596E-01
 0.86902E-01 0.13450     0.18477     0.22255     0.23697     0.22282     0.18483     0.13443     0.86915E-01 0.57594E-01
 0.48056E-01 0.55338E-01 0.53440E-01 0.61603E-01 0.75758E-01 0.91379E-01 0.10205     0.10203     0.91440E-01 0.75651E-01
 0.61590E-01 0.53566E-01 0.54080E-01 0.65759E-01 0.91433E-01 0.12789     0.16778     0.20199     0.22282     0.22230    
 0.20214     0.16754     0.12813     0.91272E-01 0.66014E-01 0.54031E-01 0.71911E-01 0.67636E-01 0.68446E-01 0.71860E-01
 0.75063E-01 0.76423E-01 0.75068E-01 0.71836E-01 0.68542E-01 0.67681E-01 0.71643E-01 0.82100E-01 0.98890E-01 0.12064    
 0.14451     0.16760     0.18474     0.19129     0.18480     0.16767     0.14449     0.12062     0.98608E-01 0.82106E-01
 0.10935     0.10989     0.11035     0.11086     0.11181     0.11223     0.11223     0.11173     0.11098     0.11020    
 0.10966     0.10985     0.11120     0.11450     0.12056     0.12810     0.13442     0.13796     0.13796     0.13446    
 0.12800     0.12060     0.11489     0.11110     0.12971     0.15127     0.17554     0.19723     0.21053     0.21735    
 0.21927     0.21750     0.21062     0.19674     0.17603     0.15172     0.12897     0.11119     0.98954E-01 0.91306E-01
 0.86952E-01 0.84678E-01 0.83977E-01 0.84633E-01 0.86967E-01 0.91314E-01 0.98663E-01 0.11125     0.10932     0.15208    
 0.20652     0.26521     0.31849     0.35433     0.37121     0.37112     0.35414     0.31873     0.26558     0.20595    
 0.15164     0.10992     0.82020E-01 0.65857E-01 0.57549E-01 0.53982E-01 0.52758E-01 0.52798E-01 0.53958E-01 0.57601E-01
 0.65938E-01 0.82015E-01 0.71903E-01 0.10946     0.17547     0.26639     0.35797     0.43316     0.47881     0.49447    
 0.47879     0.43285     0.35828     0.26591     0.17591     0.10971     0.71640E-01 0.54055E-01 0.48144E-01 0.48165E-01
 0.50153E-01 0.51212E-01 0.50157E-01 0.48144E-01 0.48079E-01 0.54104E-01 0.53459E-01 0.67770E-01 0.11045     0.19627    
 0.31896     0.43269     0.51409     0.55304     0.55441     0.51355     0.43344     0.31791     0.19712     0.11003    
 0.67745E-01 0.53546E-01 0.55352E-01 0.67345E-01 0.83988E-01 0.96146E-01 0.96174E-01 0.83965E-01 0.67441E-01 0.55283E-01
 0.81104E-01 0.61520E-01 0.68444E-01 0.11119     0.21044     0.35422     0.47888     0.55437     0.57866     0.55356    
 0.47893     0.35441     0.21056     0.11101     0.68542E-01 0.61577E-01 0.80991E-01 0.12945     0.19930     0.26076    
 0.28461     0.26074     0.19923     0.12950     0.25401     0.12901     0.75730E-01 0.71746E-01 0.11178     0.21754    
 0.37102     0.49396     0.55354     0.55470     0.49359     0.37141     0.21727     0.11182     0.71780E-01 0.75710E-01
 0.12887     0.25424     0.41513     0.53348     0.58793     0.58803     0.53347     0.41511     0.60860     0.40622    
 0.19140     0.91485E-01 0.75062E-01 0.11219     0.21933     0.37147     0.47907     0.51310     0.47909     0.37137    
 0.21928     0.11221     0.75090E-01 0.91401E-01 0.19151     0.40633     0.60849     0.71418     0.75739     0.76873    
 0.75736     0.71422     0.78911     0.71283     0.52006     0.24470     0.10206     0.76419E-01 0.11225     0.21712    
 0.35443     0.43313     0.43335     0.35382     0.21753     0.11217     0.76437E-01 0.10203     0.24482     0.51993    
 0.71280     0.78914     0.81391     0.81999     0.82000     0.81391     0.82484     0.81579     0.75754     0.57419    
 0.26542     0.10203     0.75068E-01 0.11187     0.21053     0.31825     0.35823     0.31861     0.21055     0.11180    
 0.75079E-01 0.10202     0.26546     0.57411     0.75759     0.81579     0.82483     0.81770     0.81282     0.81770    
 0.79225     0.82001     0.82344     0.76972     0.57415     0.24479     0.91447E-01 0.71753E-01 0.11104     0.19695    
 0.26578     0.26552     0.19694     0.11098     0.71795E-01 0.91445E-01 0.24479     0.57412     0.76975     0.82343    
 0.82000     0.79226     0.76612     0.76611     0.70500     0.76824     0.81616     0.82345     0.75752     0.52007    
 0.19135     0.75788E-01 0.68423E-01 0.11034     0.17544     0.20679     0.17542     0.11039     0.68455E-01 0.75728E-01
 0.19141     0.52002     0.75756     0.82343     0.81617     0.76824     0.70500     0.67411     0.59300     0.67530    
 0.76824     0.81999     0.81581     0.71280     0.40634     0.12889     0.61584E-01 0.67725E-01 0.10972     0.15148    
 0.15179     0.10959     0.67741E-01 0.61560E-01 0.12895     0.40625     0.71283     0.81579     0.82000     0.76823    
 0.67531     0.59300     0.68122     0.71073     0.77117     0.81692     0.82304     0.75688     0.51995     0.18811    
 0.70351E-01 0.59739E-01 0.92668E-01 0.14470     0.16960     0.14463     0.92653E-01 0.59782E-01 0.70325E-01 0.18814    
 0.51990     0.75690     0.82304     0.81692     0.77117     0.71074     0.71073     0.71075     0.75405     0.80282    
 0.82480     0.79653     0.65439     0.32450     0.99736E-01 0.51747E-01 0.59007E-01 0.94620E-01 0.12629     0.12729    
 0.94013E-01 0.59305E-01 0.51566E-01 0.99916E-01 0.32425     0.65455     0.79647     0.82482     0.80281     0.75405    
 0.77117     0.75562     0.77116     0.80282     0.82324     0.80843     0.71360     0.44509     0.14971     0.56034E-01
 0.45480E-01 0.65725E-01 0.97379E-01 0.11154     0.97419E-01 0.65663E-01 0.45494E-01 0.56037E-01 0.14977     0.44497    
 0.71363     0.80843     0.82323     0.80282     0.81692     0.80584     0.80585     0.81692     0.82482     0.80841    
 0.72964     0.50636     0.19841     0.66105E-01 0.41246E-01 0.50850E-01 0.79182E-01 0.10110     0.10164     0.78815E-01
 0.51048E-01 0.41152E-01 0.66172E-01 0.19826     0.50656     0.72957     0.80845     0.82479     0.82304     0.82835    
 0.82838     0.82837     0.82302     0.79651     0.71362     0.50654     0.21824     0.74360E-01 0.40718E-01 0.44126E-01
 0.67990E-01 0.95867E-01 0.10610     0.95850E-01 0.67990E-01 0.44122E-01 0.40714E-01 0.74391E-01 0.21821     0.50651    
 0.71357     0.79653     0.75689     0.79878     0.81324     0.81321     0.79878     0.75693     0.65446     0.44491    
 0.19837     0.74368E-01 0.40980E-01 0.41365E-01 0.62552E-01 0.92741E-01 0.11239     0.11211     0.92986E-01 0.62402E-01
 0.41430E-01 0.40952E-01 0.74383E-01 0.19832     0.44512     0.65439     0.51995     0.64733     0.70819     0.72560    
 0.70821     0.64737     0.51980     0.32450     0.14977     0.66097E-01 0.40740E-01 0.41435E-01 0.60719E-01 0.91906E-01
 0.11751     0.12704     0.11751     0.91916E-01 0.60749E-01 0.41411E-01 0.40733E-01 0.66119E-01 0.14967     0.32450    
 0.18807     0.30915     0.41484     0.47130     0.47135     0.41479     0.30908     0.18818     0.99789E-01 0.56052E-01
 0.41208E-01 0.44041E-01 0.62490E-01 0.91856E-01 0.11976     0.13659     0.13653     0.11974     0.91832E-01 0.62491E-01
 0.44067E-01 0.41219E-01 0.56073E-01 0.99770E-01 0.70348E-01 0.10267     0.14446     0.18111     0.19559     0.18106    
 0.14449     0.10276     0.70269E-01 0.51644E-01 0.45501E-01 0.50982E-01 0.68078E-01 0.92904E-01 0.11752     0.13653    
 0.14401     0.13662     0.11756     0.92864E-01 0.68085E-01 0.50933E-01 0.45452E-01 0.51698E-01 0.59781E-01 0.66538E-01
 0.76952E-01 0.87939E-01 0.95277E-01 0.95253E-01 0.87998E-01 0.76882E-01 0.66478E-01 0.59895E-01 0.59142E-01 0.65590E-01
 0.79049E-01 0.95615E-01 0.11229     0.12701     0.13661     0.13643     0.12705     0.11221     0.95730E-01 0.79029E-01
 0.65755E-01 0.59049E-01 0.92646E-01 0.92341E-01 0.94642E-01 0.98016E-01 0.10075     0.10190     0.10076     0.97994E-01
 0.94688E-01 0.92465E-01 0.92434E-01 0.94441E-01 0.97428E-01 0.10140     0.10631     0.11223     0.11753     0.11982    
 0.11757     0.11223     0.10630     0.10128     0.97298E-01 0.94570E-01 0.14463     0.16214     0.17359     0.18042    
 0.18450     0.18604     0.18607     0.18429     0.18063     0.17362     0.16164     0.14496     0.12681     0.11144    
 0.10137     0.95692E-01 0.92868E-01 0.91842E-01 0.91836E-01 0.92896E-01 0.95670E-01 0.10150     0.11165     0.12644    
 0.16964     0.22088     0.27500     0.31837     0.34513     0.35938     0.36361     0.35964     0.34535     0.31765    
 0.27518     0.22183     0.16907     0.12676     0.97491E-01 0.78965E-01 0.68125E-01 0.62474E-01 0.60775E-01 0.62447E-01
 0.68129E-01 0.78885E-01 0.97334E-01 0.12709     0.14456     0.22270     0.31636     0.40851     0.48104     0.52584    
 0.54633     0.54620     0.52555     0.48140     0.40877     0.31633     0.22166     0.14512     0.94321E-01 0.65689E-01
 0.50924E-01 0.44076E-01 0.41386E-01 0.41437E-01 0.44037E-01 0.51021E-01 0.65694E-01 0.94185E-01 0.92627E-01 0.16112    
 0.27494     0.40977     0.52368     0.60281     0.64570     0.65988     0.64574     0.60241     0.52414     0.40930    
 0.27499     0.16170     0.92422E-01 0.59131E-01 0.45503E-01 0.41215E-01 0.40745E-01 0.40960E-01 0.40745E-01 0.41187E-01
 0.45468E-01 0.59250E-01 0.59826E-01 0.92691E-01 0.17371     0.31709     0.48168     0.60225     0.67492     0.70588    
 0.70715     0.67436     0.60310     0.48022     0.31830     0.17334     0.92580E-01 0.59846E-01 0.51685E-01 0.56004E-01
 0.66140E-01 0.74342E-01 0.74379E-01 0.66121E-01 0.56071E-01 0.51571E-01 0.70321E-01 0.66361E-01 0.94665E-01 0.18090    
 0.34501     0.52572     0.64575     0.70713     0.72518     0.70634     0.64591     0.52590     0.34528     0.18063    
 0.94692E-01 0.66470E-01 0.70266E-01 0.99806E-01 0.14976     0.19834     0.21828     0.19831     0.14974     0.99888E-01
 0.18810     0.10286     0.76901E-01 0.97884E-01 0.18443     0.35966     0.54614     0.65935     0.70634     0.70746    
 0.65895     0.54658     0.35920     0.18452     0.97897E-01 0.76946E-01 0.10270     0.18825     0.32440     0.44504    
 0.50640     0.50655     0.44495     0.32435     0.51990     0.30888     0.14451     0.88034E-01 0.10075     0.18600    
 0.36367     0.54668     0.64599     0.67388     0.64603     0.54651     0.36367     0.18601     0.10080     0.87964E-01
 0.14453     0.30905     0.51984     0.65440     0.71366     0.72958     0.71364     0.65451     0.75690     0.64747    
 0.41481     0.18097     0.95294E-01 0.10188     0.18612     0.35900     0.52591     0.60287     0.60293     0.52526    
 0.35960     0.18598     0.10192     0.95253E-01 0.18107     0.41477     0.64737     0.75693     0.79651     0.80843    
 0.80843     0.79648     0.82304     0.79874     0.70821     0.47143     0.19557     0.95263E-01 0.10075     0.18458    
 0.34522     0.48063     0.52408     0.48116     0.34524     0.18443     0.10078     0.95252E-01 0.19561     0.47134    
 0.70823     0.79877     0.82303     0.82480     0.82324     0.82482     0.81692     0.82837     0.81323     0.72553    
 0.47138     0.18106     0.87984E-01 0.97907E-01 0.18057     0.31835     0.40872     0.40910     0.31774     0.18074    
 0.97895E-01 0.88013E-01 0.18103     0.47138     0.72555     0.81323     0.82835     0.81693     0.80282     0.80281    
 0.77117     0.80584     0.82837     0.81326     0.70815     0.41488     0.14443     0.76997E-01 0.94594E-01 0.17360    
 0.27468     0.31708     0.27460     0.17374     0.94614E-01 0.76943E-01 0.14448     0.41481     0.70821     0.81323    
 0.82838     0.80584     0.77116     0.75406     0.71074     0.75563     0.80585     0.82834     0.79879     0.64735    
 0.30911     0.10267     0.66512E-01 0.92474E-01 0.16193     0.22109     0.22231     0.16129     0.92671E-01 0.66401E-01
 0.10280     0.30893     0.64745     0.79875     0.82837     0.80584     0.75564     0.71073     0.79016     0.80057    
 0.82092     0.82928     0.79936     0.66961     0.35870     0.11900     0.63736E-01 0.77332E-01 0.13803     0.21359    
 0.24394     0.21342     0.13801     0.77404E-01 0.63714E-01 0.11900     0.35864     0.66965     0.79935     0.82928    
 0.82091     0.80058     0.80057     0.80059     0.81502     0.82767     0.81658     0.74385     0.51970     0.20074    
 0.70848E-01 0.52656E-01 0.76066E-01 0.12825     0.16756     0.16881     0.12748     0.76450E-01 0.52454E-01 0.70993E-01
 0.20055     0.51993     0.74375     0.81661     0.82766     0.81503     0.82092     0.81636     0.82091     0.82767    
 0.81996     0.76925     0.60808     0.29659     0.94497E-01 0.46488E-01 0.49215E-01 0.78667E-01 0.11539     0.12971    
 0.11544     0.78587E-01 0.49232E-01 0.46493E-01 0.94537E-01 0.29645     0.60813     0.76923     0.81996     0.82767    
 0.82928     0.83052     0.83051     0.82927     0.81660     0.76924     0.63389     0.35598     0.12142     0.48359E-01
 0.38363E-01 0.53701E-01 0.83106E-01 0.10342     0.10364     0.82920E-01 0.53819E-01 0.38325E-01 0.48366E-01 0.12137    
 0.35614     0.63383     0.76928     0.81657     0.79936     0.81973     0.82471     0.81975     0.79934     0.74382    
 0.60805     0.35619     0.13328     0.51369E-01 0.34443E-01 0.42052E-01 0.64614E-01 0.87122E-01 0.95099E-01 0.87135E-01
 0.64626E-01 0.42027E-01 0.34442E-01 0.51394E-01 0.13326     0.35611     0.60804     0.74385     0.66963     0.74208    
 0.76984     0.76982     0.74207     0.66965     0.51982     0.29645     0.12141     0.51392E-01 0.33554E-01 0.37225E-01
 0.55397E-01 0.77273E-01 0.90629E-01 0.90425E-01 0.77424E-01 0.55292E-01 0.37289E-01 0.33533E-01 0.51397E-01 0.12139    
 0.29661     0.51969     0.35870     0.50014     0.58322     0.60915     0.58321     0.50021     0.35861     0.20076    
 0.94490E-01 0.48329E-01 0.34456E-01 0.37303E-01 0.52412E-01 0.72894E-01 0.88461E-01 0.94362E-01 0.88464E-01 0.72896E-01
 0.52434E-01 0.37274E-01 0.34449E-01 0.48345E-01 0.94460E-01 0.20078     0.11896     0.19032     0.26330     0.30830    
 0.30835     0.26330     0.19027     0.11896     0.70905E-01 0.46548E-01 0.38348E-01 0.41957E-01 0.55365E-01 0.72851E-01
 0.88064E-01 0.97194E-01 0.97250E-01 0.88019E-01 0.72867E-01 0.55340E-01 0.42004E-01 0.38358E-01 0.46539E-01 0.70861E-01
 0.63732E-01 0.82073E-01 0.10488     0.12464     0.13252     0.12462     0.10486     0.82161E-01 0.63711E-01 0.52522E-01
 0.49188E-01 0.53817E-01 0.64676E-01 0.77355E-01 0.88489E-01 0.97246E-01 0.10078     0.97237E-01 0.88514E-01 0.77332E-01
 0.64682E-01 0.53746E-01 0.49172E-01 0.52609E-01 0.77395E-01 0.82213E-01 0.88932E-01 0.95770E-01 0.10016     0.10015    
 0.95808E-01 0.88905E-01 0.82118E-01 0.77473E-01 0.76232E-01 0.78621E-01 0.83043E-01 0.87005E-01 0.90538E-01 0.94299E-01
 0.97230E-01 0.97222E-01 0.94292E-01 0.90555E-01 0.87034E-01 0.83079E-01 0.78704E-01 0.76103E-01 0.13799     0.14426    
 0.14920     0.15272     0.15502     0.15592     0.15503     0.15276     0.14912     0.14442     0.13797     0.12805    
 0.11522     0.10353     0.95231E-01 0.90536E-01 0.88504E-01 0.88037E-01 0.88526E-01 0.90497E-01 0.95218E-01 0.10342    
 0.11524     0.12827     0.21349     0.25567     0.28452     0.30226     0.31174     0.31552     0.31558     0.31139    
 0.30244     0.28495     0.25500     0.21334     0.16821     0.12991     0.10354     0.87000E-01 0.77350E-01 0.72864E-01
 0.72852E-01 0.77369E-01 0.87026E-01 0.10364     0.12995     0.16761     0.24398     0.33141     0.41481     0.47531    
 0.51259     0.53215     0.53816     0.53253     0.51274     0.47471     0.41451     0.33260     0.24387     0.16809    
 0.11530     0.82987E-01 0.64725E-01 0.55318E-01 0.52471E-01 0.55303E-01 0.64719E-01 0.82896E-01 0.11526     0.16865    
 0.21333     0.33369     0.45777     0.56210     0.63213     0.67266     0.69044     0.69033     0.67229     0.63271    
 0.56184     0.45844     0.33231     0.21368     0.12785     0.78740E-01 0.53735E-01 0.42021E-01 0.37240E-01 0.37304E-01
 0.41962E-01 0.53856E-01 0.78649E-01 0.12765     0.13797     0.25428     0.41475     0.56249     0.66475     0.72597    
 0.75684     0.76681     0.75690     0.72567     0.66502     0.56248     0.41422     0.25507     0.13793     0.76248E-01
 0.49184E-01 0.38348E-01 0.34463E-01 0.33538E-01 0.34460E-01 0.38328E-01 0.49176E-01 0.76418E-01 0.77470E-01 0.14476    
 0.28472     0.47446     0.63276     0.72561     0.77537     0.79520     0.79612     0.77494     0.72626     0.63149    
 0.47560     0.28447     0.14465     0.77365E-01 0.52583E-01 0.46500E-01 0.48371E-01 0.51358E-01 0.51401E-01 0.48340E-01
 0.46552E-01 0.52439E-01 0.63709E-01 0.81983E-01 0.14923     0.30261     0.51249     0.67244     0.75687     0.79613    
 0.80714     0.79552     0.75704     0.67262     0.51269     0.30238     0.14914     0.82117E-01 0.63709E-01 0.70909E-01
 0.94488E-01 0.12139     0.13330     0.12138     0.94491E-01 0.70977E-01 0.11897     0.82243E-01 0.88868E-01 0.15267    
 0.31155     0.53257     0.69029     0.76640     0.79552     0.79638     0.76607     0.69068     0.53194     0.31185    
 0.15257     0.88989E-01 0.82099E-01 0.11904     0.20065     0.29661     0.35601     0.35618     0.29646     0.20063    
 0.35865     0.19012     0.10491     0.95817E-01 0.15503     0.31545     0.53818     0.69080     0.75706     0.77457    
 0.75710     0.69062     0.53823     0.31545     0.15508     0.95778E-01 0.10489     0.19023     0.35868     0.51973    
 0.60812     0.63381     0.60812     0.51987     0.66967     0.50033     0.26327     0.12458     0.10018     0.15590    
 0.31567     0.53172     0.67260     0.72615     0.72607     0.67210     0.53240     0.31545     0.15595     0.10013    
 0.12462     0.26329     0.50022     0.66966     0.74381     0.76925     0.76925     0.74376     0.79935     0.74200    
 0.58325     0.30838     0.13251     0.10015     0.15500     0.31193     0.51261     0.63186     0.66494     0.63244    
 0.51259     0.31166     0.15504     0.10015     0.13253     0.30833     0.58323     0.74205     0.79935     0.81658    
 0.81996     0.81661     0.82928     0.81977     0.76982     0.60910     0.30834     0.12463     0.95790E-01 0.15261    
 0.30228     0.47575     0.56182     0.56223     0.47490     0.30260     0.15259     0.95820E-01 0.12460     0.30836    
 0.60910     0.76985     0.81974     0.82929     0.82767     0.82766     0.82091     0.83050     0.82472     0.76986    
 0.58317     0.26333     0.10484     0.89009E-01 0.14910     0.28455     0.41427     0.45886     0.41415     0.28483    
 0.14909     0.88961E-01 0.10487     0.26330     0.58323     0.76983     0.82472     0.83051     0.82091     0.81503    
 0.80058     0.81637     0.83052     0.81972     0.74209     0.50016     0.19032     0.82055E-01 0.82193E-01 0.14442    
 0.25556     0.33139     0.33339     0.25438     0.14483     0.82005E-01 0.82198E-01 0.19015     0.50032     0.74201    
 0.81976     0.83050     0.81638     0.80056     0.83407     0.83449     0.83018     0.80368     0.71260     0.47352    
 0.18524     0.77453E-01 0.70309E-01 0.11825     0.21905     0.31320     0.34496     0.31290     0.21903     0.11839    
 0.70298E-01 0.77429E-01 0.18523     0.47357     0.71258     0.80368     0.83018     0.83450     0.83449     0.83451    
 0.83205     0.81651     0.76140     0.60279     0.30446     0.10442     0.55789E-01 0.64780E-01 0.11433     0.18884    
 0.23596     0.23684     0.18835     0.11464     0.64596E-01 0.55866E-01 0.10437     0.30458     0.60267     0.76145    
 0.81649     0.83206     0.83019     0.83300     0.83019     0.81650     0.77371     0.65623     0.40224     0.14889    
 0.58113E-01 0.44570E-01 0.64083E-01 0.10953     0.15415     0.17003     0.15419     0.10944     0.64092E-01 0.44591E-01
 0.58125E-01 0.14881     0.40229     0.65622     0.77371     0.81651     0.80368     0.81824     0.81823     0.80368    
 0.76142     0.65626     0.43687     0.18334     0.66061E-01 0.38258E-01 0.42550E-01 0.68144E-01 0.10284     0.12428    
 0.12425     0.10279     0.68203E-01 0.42561E-01 0.38227E-01 0.66065E-01 0.18341     0.43685     0.65626     0.76140    
 0.71260     0.76039     0.77356     0.76042     0.71259     0.60272     0.40219     0.18349     0.70192E-01 0.36769E-01
 0.34016E-01 0.48785E-01 0.74403E-01 0.95956E-01 0.10367     0.96003E-01 0.74430E-01 0.48728E-01 0.34016E-01 0.36793E-01
 0.70187E-01 0.18341     0.40222     0.60278     0.47355     0.58704     0.63794     0.63793     0.58701     0.47355    
 0.30454     0.14879     0.66062E-01 0.36815E-01 0.31751E-01 0.40950E-01 0.60358E-01 0.79694E-01 0.91037E-01 0.90925E-01
 0.79738E-01 0.60316E-01 0.41004E-01 0.31745E-01 0.36799E-01 0.66062E-01 0.14887     0.30443     0.18525     0.28276    