 vasp.5.2.2 15Apr09 complex 
 executed on             LinuxIFC date 2012.06.25  23:25:13
 running on    4 nodes
 distr:  one band on    2 nodes,    2 groups


--------------------------------------------------------------------------------------------------------


 INCAR:
 POTCAR:   PAW_PBE Ge_d 06Sep2000                 
 POTCAR:   PAW_PBE Sr_sv 07Sep2000                
 POTCAR:   PAW_PBE Ge_d 06Sep2000                 
   VRHFIN =Ge: 3d4s4p                                                           
   LEXCH  = PE                                                                  
   EATOM  =  2596.4246 eV,  190.8318 Ry                                         
                                                                                
   TITEL  = PAW_PBE Ge_d 06Sep2000                                              
   LULTRA =        F    use ultrasoft PP ?                                      
   IUNSCR =        1    unscreen: 0-lin 1-nonlin 2-no                           
   RPACOR =    2.000    partial core radius                                     
   POMASS =   72.610; ZVAL   =   14.000    mass and valenz                      
   RCORE  =    2.300    outmost cutoff radius                                   
   RWIGS  =    2.300; RWIGS  =    1.217    wigner-seitz radius (au A)           
   ENMAX  =  287.568; ENMIN  =  215.676 eV                                      
   ICORE  =        3    local potential                                         
   LCOR   =        T    correct aug charges                                     
   LPAW   =        T    paw PP                                                  
   EAUG   =  531.356                                                            
   DEXC   =     .000                                                            
   RMAX   =    2.719    core radius for proj-oper                               
   RAUG   =    1.300    factor for augmentation sphere                          
   RDEP   =    2.318    radius for radial grids                                 
   QCUT   =   -4.597; QGAM   =    9.195    optimization parameters              
                                                                                
   Description                                                                  
     l     E      TYP  RCUT    TYP  RCUT                                        
     2   .000     23  2.300                                                     
     2  -.100     23  2.300                                                     
     0   .000     23  2.300                                                     
     0   .000     23  2.300                                                     
     1   .000     23  2.300                                                     
     1   .000     23  2.300                                                     
     3  -.100      7  2.300                                                     
  local pseudopotential read in
  partial core-charges read in
  atomic valenz-charges read in
  non local Contribution for L=           2  read in
    real space projection operators read in
  non local Contribution for L=           2  read in
    real space projection operators read in
  non local Contribution for L=           0  read in
    real space projection operators read in
  non local Contribution for L=           0  read in
    real space projection operators read in
  non local Contribution for L=           1  read in
    real space projection operators read in
  non local Contribution for L=           1  read in
    real space projection operators read in
    PAW grid and wavefunctions read in
 
   number of l-projection  operators is LMAX  =           6
   number of lm-projection operators is LMMAX =          18
 
 POTCAR:   PAW_PBE Sr_sv 07Sep2000                
   VRHFIN =Sr: 4s4p5s                                                           
   LEXCH  = PE                                                                  
   EATOM  =   842.4562 eV,   61.9188 Ry                                         
                                                                                
   TITEL  = PAW_PBE Sr_sv 07Sep2000                                             
   LULTRA =        F    use ultrasoft PP ?                                      
   IUNSCR =        1    unscreen: 0-lin 1-nonlin 2-no                           
   RPACOR =    2.200    partial core radius                                     
   POMASS =   87.620; ZVAL   =   10.000    mass and valenz                      
   RCORE  =    2.500    outmost cutoff radius                                   
   RWIGS  =    4.040; RWIGS  =    2.138    wigner-seitz radius (au A)           
   ENMAX  =  229.282; ENMIN  =  171.961 eV                                      
   RCLOC  =    2.201    cutoff for local pot                                    
   LCOR   =        T    correct aug charges                                     
   LPAW   =        T    paw PP                                                  
   EAUG   =  366.804                                                            
   DEXC   =     .000                                                            
   RMAX   =    3.045    core radius for proj-oper                               
   RAUG   =    1.300    factor for augmentation sphere                          
   RDEP   =    2.562    radius for radial grids                                 
   QCUT   =   -4.105; QGAM   =    8.210    optimization parameters              
                                                                                
   Description                                                                  
     l     E      TYP  RCUT    TYP  RCUT                                        
     0   .000     23  2.480                                                     
     0   .000     23  2.480                                                     
     1   .000     23  2.500                                                     
     1   .000     23  2.500                                                     
     2   .000     23  2.500                                                     
     2   .000     23  2.500                                                     
  local pseudopotential read in
  partial core-charges read in
  atomic valenz-charges read in
  non local Contribution for L=           0  read in
    real space projection operators read in
  non local Contribution for L=           0  read in
    real space projection operators read in
  non local Contribution for L=           1  read in
    real space projection operators read in
  non local Contribution for L=           1  read in
    real space projection operators read in
  non local Contribution for L=           2  read in
    real space projection operators read in
  non local Contribution for L=           2  read in
    real space projection operators read in
    PAW grid and wavefunctions read in
 
   number of l-projection  operators is LMAX  =           6
   number of lm-projection operators is LMMAX =          18
 
 PAW_PBE Ge_d 06Sep2000                 :
 energy of atom  1       EATOM=-2596.4246
 kinetic energy error for atom=    0.0022 (will be added to EATOM!!)
 PAW_PBE Sr_sv 07Sep2000                :
 energy of atom  2       EATOM= -842.4562
 kinetic energy error for atom=    0.0010 (will be added to EATOM!!)
 
 
 POSCAR: Ge Sr                                   
  positions in direct lattice
  No initial velocities read in
 exchange correlation table for  LEXCH =        8
   RHO(1)=    0.500       N(1)  =     2000
   RHO(2)=  100.500       N(2)  =     4000
 


--------------------------------------------------------------------------------------------------------


 ion  position               nearest neighbor table
   1  0.333  0.667  0.404-   2 2.60   2 2.60   2 2.60   3 3.19   3 3.19   3 3.19   3 3.91   3 3.91
                             3 3.91
   2  0.667  0.333  0.596-   1 2.60   1 2.60   1 2.60   3 3.19   3 3.19   3 3.19   3 3.91   3 3.91
                             3 3.91
   3  0.000  0.000  0.000-   1 3.19   2 3.19   1 3.19   2 3.19   2 3.19   1 3.19   2 3.91   1 3.91
                             1 3.91   2 3.91   2 3.91   1 3.91
 
  LATTYP: Found a hexagonal cell.
 ALAT       =     4.1625465858
 C/A-ratio  =     1.2453779144
  
  Lattice vectors:
  
 A1 = (   4.1625466442,   0.0000000000,   0.0000000000)
 A2 = (  -2.0812733221,   3.6048710708,   0.0000000000)
 A3 = (   0.0000000000,   0.0000000000,   5.1839435857)
 Subroutine PRICEL returns:
 Original cell was already a primitive cell.
 

Analysis of symmetry for initial positions (statically):

 Routine SETGRP: Setting up the symmetry group for a 
 hexagonal supercell.


 Subroutine GETGRP returns: Found 12 space group operations
 (whereof 12 operations were pure point group operations)
 out of a pool of 24 trial point group operations.


The static configuration has the point symmetry D_3d.

Analysis of symmetry for dynamics (positions and initial velocities):

 Subroutine DYNSYM returns: Found 12 space group operations
 (whereof 12 operations were pure point group operations)
 out of a pool of 12 trial space group operations
 (whereof 12 operations were pure point group operations)
 and found also     1 'primitive' translations


The dynamic configuration has the point symmetry D_3d.
 
 
 KPOINTS: KPOINTS created by Atomic Simulation Env

Automatic generation of k-mesh.
 
 Subroutine IBZKPT returns following result:
 ===========================================
 
 Found    261 irreducible k-points:
 
 Following reciprocal coordinates:
            Coordinates               Weight
  0.000000  0.000000  0.000000      1.000000
  0.058824  0.000000  0.000000      6.000000
  0.117647  0.000000  0.000000      6.000000
  0.176471  0.000000  0.000000      6.000000
  0.235294  0.000000  0.000000      6.000000
  0.294118  0.000000  0.000000      6.000000
  0.352941  0.000000  0.000000      6.000000
  0.411765  0.000000  0.000000      6.000000
  0.470588  0.000000  0.000000      6.000000
  0.058824  0.058824  0.000000      6.000000
  0.117647  0.058824  0.000000     12.000000
  0.176471  0.058824  0.000000     12.000000
  0.235294  0.058824  0.000000     12.000000
  0.294118  0.058824  0.000000     12.000000
  0.352941  0.058824  0.000000     12.000000
  0.411765  0.058824  0.000000     12.000000
  0.470588  0.058824  0.000000      6.000000
  0.117647  0.117647  0.000000      6.000000
  0.176471  0.117647  0.000000     12.000000
  0.235294  0.117647  0.000000     12.000000
  0.294118  0.117647  0.000000     12.000000
  0.352941  0.117647  0.000000     12.000000
  0.411765  0.117647  0.000000     12.000000
  0.176471  0.176471  0.000000      6.000000
  0.235294  0.176471  0.000000     12.000000
  0.294118  0.176471  0.000000     12.000000
  0.352941  0.176471  0.000000     12.000000
  0.411765  0.176471  0.000000      6.000000
  0.235294  0.235294  0.000000      6.000000
  0.294118  0.235294  0.000000     12.000000
  0.352941  0.235294  0.000000     12.000000
  0.294118  0.294118  0.000000      6.000000
  0.352941  0.294118  0.000000      6.000000
  0.000000  0.000000  0.111111      2.000000
  0.058824  0.000000  0.111111      6.000000
  0.117647  0.000000  0.111111      6.000000
  0.176471  0.000000  0.111111      6.000000
  0.235294  0.000000  0.111111      6.000000
  0.294118  0.000000  0.111111      6.000000
  0.352941  0.000000  0.111111      6.000000
  0.411765  0.000000  0.111111      6.000000
  0.470588  0.000000  0.111111      6.000000
 -0.470588  0.000000  0.111111      6.000000
 -0.411765  0.000000  0.111111      6.000000
 -0.352941  0.000000  0.111111      6.000000
 -0.294118  0.000000  0.111111      6.000000
 -0.235294  0.000000  0.111111      6.000000
 -0.176471  0.000000  0.111111      6.000000
 -0.117647  0.000000  0.111111      6.000000
 -0.058824  0.000000  0.111111      6.000000
  0.058824  0.058824  0.111111     12.000000
  0.117647  0.058824  0.111111     12.000000
  0.176471  0.058824  0.111111     12.000000
  0.235294  0.058824  0.111111     12.000000
  0.294118  0.058824  0.111111     12.000000
  0.352941  0.058824  0.111111     12.000000
  0.411765  0.058824  0.111111     12.000000
  0.470588  0.058824  0.111111     12.000000
 -0.470588  0.058824  0.111111     12.000000
 -0.411765  0.058824  0.111111     12.000000
 -0.352941  0.058824  0.111111     12.000000
 -0.294118  0.058824  0.111111     12.000000
 -0.235294  0.058824  0.111111     12.000000
 -0.176471  0.058824  0.111111     12.000000
  0.117647  0.117647  0.111111     12.000000
  0.176471  0.117647  0.111111     12.000000
  0.235294  0.117647  0.111111     12.000000
  0.294118  0.117647  0.111111     12.000000
  0.352941  0.117647  0.111111     12.000000
  0.411765  0.117647  0.111111     12.000000
  0.470588  0.117647  0.111111     12.000000
 -0.470588  0.117647  0.111111     12.000000
 -0.411765  0.117647  0.111111     12.000000
 -0.352941  0.117647  0.111111     12.000000
 -0.294118  0.117647  0.111111     12.000000
  0.176471  0.176471  0.111111     12.000000
  0.235294  0.176471  0.111111     12.000000
  0.294118  0.176471  0.111111     12.000000
  0.352941  0.176471  0.111111     12.000000
  0.411765  0.176471  0.111111     12.000000
  0.470588  0.176471  0.111111     12.000000
 -0.470588  0.176471  0.111111     12.000000
 -0.411765  0.176471  0.111111     12.000000
  0.235294  0.235294  0.111111     12.000000
  0.294118  0.235294  0.111111     12.000000
  0.352941  0.235294  0.111111     12.000000
  0.411765  0.235294  0.111111     12.000000
  0.470588  0.235294  0.111111     12.000000
  0.294118  0.294118  0.111111     12.000000
  0.352941  0.294118  0.111111     12.000000
  0.000000  0.000000  0.222222      2.000000
  0.058824  0.000000  0.222222      6.000000
  0.117647  0.000000  0.222222      6.000000
  0.176471  0.000000  0.222222      6.000000
  0.235294  0.000000  0.222222      6.000000
  0.294118  0.000000  0.222222      6.000000
  0.352941  0.000000  0.222222      6.000000
  0.411765  0.000000  0.222222      6.000000
  0.470588  0.000000  0.222222      6.000000
 -0.470588  0.000000  0.222222      6.000000
 -0.411765  0.000000  0.222222      6.000000
 -0.352941  0.000000  0.222222      6.000000
 -0.294118  0.000000  0.222222      6.000000
 -0.235294  0.000000  0.222222      6.000000
 -0.176471  0.000000  0.222222      6.000000
 -0.117647  0.000000  0.222222      6.000000
 -0.058824  0.000000  0.222222      6.000000
  0.058824  0.058824  0.222222     12.000000
  0.117647  0.058824  0.222222     12.000000
  0.176471  0.058824  0.222222     12.000000
  0.235294  0.058824  0.222222     12.000000
  0.294118  0.058824  0.222222     12.000000
  0.352941  0.058824  0.222222     12.000000
  0.411765  0.058824  0.222222     12.000000
  0.470588  0.058824  0.222222     12.000000
 -0.470588  0.058824  0.222222     12.000000
 -0.411765  0.058824  0.222222     12.000000
 -0.352941  0.058824  0.222222     12.000000
 -0.294118  0.058824  0.222222     12.000000
 -0.235294  0.058824  0.222222     12.000000
 -0.176471  0.058824  0.222222     12.000000
  0.117647  0.117647  0.222222     12.000000
  0.176471  0.117647  0.222222     12.000000
  0.235294  0.117647  0.222222     12.000000
  0.294118  0.117647  0.222222     12.000000
  0.352941  0.117647  0.222222     12.000000
  0.411765  0.117647  0.222222     12.000000
  0.470588  0.117647  0.222222     12.000000
 -0.470588  0.117647  0.222222     12.000000
 -0.411765  0.117647  0.222222     12.000000
 -0.352941  0.117647  0.222222     12.000000
 -0.294118  0.117647  0.222222     12.000000
  0.176471  0.176471  0.222222     12.000000
  0.235294  0.176471  0.222222     12.000000
  0.294118  0.176471  0.222222     12.000000
  0.352941  0.176471  0.222222     12.000000
  0.411765  0.176471  0.222222     12.000000
  0.470588  0.176471  0.222222     12.000000
 -0.470588  0.176471  0.222222     12.000000
 -0.411765  0.176471  0.222222     12.000000
  0.235294  0.235294  0.222222     12.000000
  0.294118  0.235294  0.222222     12.000000
  0.352941  0.235294  0.222222     12.000000
  0.411765  0.235294  0.222222     12.000000
  0.470588  0.235294  0.222222     12.000000
  0.294118  0.294118  0.222222     12.000000
  0.352941  0.294118  0.222222     12.000000
  0.000000  0.000000  0.333333      2.000000
  0.058824  0.000000  0.333333      6.000000
  0.117647  0.000000  0.333333      6.000000
  0.176471  0.000000  0.333333      6.000000
  0.235294  0.000000  0.333333      6.000000
  0.294118  0.000000  0.333333      6.000000
  0.352941  0.000000  0.333333      6.000000
  0.411765  0.000000  0.333333      6.000000
  0.470588  0.000000  0.333333      6.000000
 -0.470588  0.000000  0.333333      6.000000
 -0.411765  0.000000  0.333333      6.000000
 -0.352941  0.000000  0.333333      6.000000
 -0.294118  0.000000  0.333333      6.000000
 -0.235294  0.000000  0.333333      6.000000
 -0.176471  0.000000  0.333333      6.000000
 -0.117647  0.000000  0.333333      6.000000
 -0.058824  0.000000  0.333333      6.000000
  0.058824  0.058824  0.333333     12.000000
  0.117647  0.058824  0.333333     12.000000
  0.176471  0.058824  0.333333     12.000000
  0.235294  0.058824  0.333333     12.000000
  0.294118  0.058824  0.333333     12.000000
  0.352941  0.058824  0.333333     12.000000
  0.411765  0.058824  0.333333     12.000000
  0.470588  0.058824  0.333333     12.000000
 -0.470588  0.058824  0.333333     12.000000
 -0.411765  0.058824  0.333333     12.000000
 -0.352941  0.058824  0.333333     12.000000
 -0.294118  0.058824  0.333333     12.000000
 -0.235294  0.058824  0.333333     12.000000
 -0.176471  0.058824  0.333333     12.000000
  0.117647  0.117647  0.333333     12.000000
  0.176471  0.117647  0.333333     12.000000
  0.235294  0.117647  0.333333     12.000000
  0.294118  0.117647  0.333333     12.000000
  0.352941  0.117647  0.333333     12.000000
  0.411765  0.117647  0.333333     12.000000
  0.470588  0.117647  0.333333     12.000000
 -0.470588  0.117647  0.333333     12.000000
 -0.411765  0.117647  0.333333     12.000000
 -0.352941  0.117647  0.333333     12.000000
 -0.294118  0.117647  0.333333     12.000000
  0.176471  0.176471  0.333333     12.000000
  0.235294  0.176471  0.333333     12.000000
  0.294118  0.176471  0.333333     12.000000
  0.352941  0.176471  0.333333     12.000000
  0.411765  0.176471  0.333333     12.000000
  0.470588  0.176471  0.333333     12.000000
 -0.470588  0.176471  0.333333     12.000000
 -0.411765  0.176471  0.333333     12.000000
  0.235294  0.235294  0.333333     12.000000
  0.294118  0.235294  0.333333     12.000000
  0.352941  0.235294  0.333333     12.000000
  0.411765  0.235294  0.333333     12.000000
  0.470588  0.235294  0.333333     12.000000
  0.294118  0.294118  0.333333     12.000000
  0.352941  0.294118  0.333333     12.000000
  0.000000  0.000000  0.444444      2.000000
  0.058824  0.000000  0.444444      6.000000
  0.117647  0.000000  0.444444      6.000000
  0.176471  0.000000  0.444444      6.000000
  0.235294  0.000000  0.444444      6.000000
  0.294118  0.000000  0.444444      6.000000
  0.352941  0.000000  0.444444      6.000000
  0.411765  0.000000  0.444444      6.000000
  0.470588  0.000000  0.444444      6.000000
 -0.470588  0.000000  0.444444      6.000000
 -0.411765  0.000000  0.444444      6.000000
 -0.352941  0.000000  0.444444      6.000000
 -0.294118  0.000000  0.444444      6.000000
 -0.235294  0.000000  0.444444      6.000000
 -0.176471  0.000000  0.444444      6.000000
 -0.117647  0.000000  0.444444      6.000000
 -0.058824  0.000000  0.444444      6.000000
  0.058824  0.058824  0.444444     12.000000
  0.117647  0.058824  0.444444     12.000000
  0.176471  0.058824  0.444444     12.000000
  0.235294  0.058824  0.444444     12.000000
  0.294118  0.058824  0.444444     12.000000
  0.352941  0.058824  0.444444     12.000000
  0.411765  0.058824  0.444444     12.000000
  0.470588  0.058824  0.444444     12.000000
 -0.470588  0.058824  0.444444     12.000000
 -0.411765  0.058824  0.444444     12.000000
 -0.352941  0.058824  0.444444     12.000000
 -0.294118  0.058824  0.444444     12.000000
 -0.235294  0.058824  0.444444     12.000000
 -0.176471  0.058824  0.444444     12.000000
  0.117647  0.117647  0.444444     12.000000
  0.176471  0.117647  0.444444     12.000000
  0.235294  0.117647  0.444444     12.000000
  0.294118  0.117647  0.444444     12.000000
  0.352941  0.117647  0.444444     12.000000
  0.411765  0.117647  0.444444     12.000000
  0.470588  0.117647  0.444444     12.000000
 -0.470588  0.117647  0.444444     12.000000
 -0.411765  0.117647  0.444444     12.000000
 -0.352941  0.117647  0.444444     12.000000
 -0.294118  0.117647  0.444444     12.000000
  0.176471  0.176471  0.444444     12.000000
  0.235294  0.176471  0.444444     12.000000
  0.294118  0.176471  0.444444     12.000000
  0.352941  0.176471  0.444444     12.000000
  0.411765  0.176471  0.444444     12.000000
  0.470588  0.176471  0.444444     12.000000
 -0.470588  0.176471  0.444444     12.000000
 -0.411765  0.176471  0.444444     12.000000
  0.235294  0.235294  0.444444     12.000000
  0.294118  0.235294  0.444444     12.000000
  0.352941  0.235294  0.444444     12.000000
  0.411765  0.235294  0.444444     12.000000
  0.470588  0.235294  0.444444     12.000000
  0.294118  0.294118  0.444444     12.000000
  0.352941  0.294118  0.444444     12.000000
 
 Following cartesian coordinates:
            Coordinates               Weight
  0.000000  0.000000  0.000000      1.000000
  0.014132  0.008159  0.000000      6.000000
  0.028263  0.016318  0.000000      6.000000
  0.042395  0.024477  0.000000      6.000000
  0.056526  0.032636  0.000000      6.000000
  0.070658  0.040794  0.000000      6.000000
  0.084790  0.048953  0.000000      6.000000
  0.098921  0.057112  0.000000      6.000000
  0.113053  0.065271  0.000000      6.000000
  0.014132  0.024477  0.000000      6.000000
  0.028263  0.032636  0.000000     12.000000
  0.042395  0.040794  0.000000     12.000000
  0.056526  0.048953  0.000000     12.000000
  0.070658  0.057112  0.000000     12.000000
  0.084790  0.065271  0.000000     12.000000
  0.098921  0.073430  0.000000     12.000000
  0.113053  0.081589  0.000000      6.000000
  0.028263  0.048953  0.000000      6.000000
  0.042395  0.057112  0.000000     12.000000
  0.056526  0.065271  0.000000     12.000000
  0.070658  0.073430  0.000000     12.000000
  0.084790  0.081589  0.000000     12.000000
  0.098921  0.089748  0.000000     12.000000
  0.042395  0.073430  0.000000      6.000000
  0.056526  0.081589  0.000000     12.000000
  0.070658  0.089748  0.000000     12.000000
  0.084790  0.097907  0.000000     12.000000
  0.098921  0.106066  0.000000      6.000000
  0.056526  0.097907  0.000000      6.000000
  0.070658  0.106066  0.000000     12.000000
  0.084790  0.114225  0.000000     12.000000
  0.070658  0.122383  0.000000      6.000000
  0.084790  0.130542  0.000000      6.000000
  0.000000  0.000000  0.021434      2.000000
  0.014132  0.008159  0.021434      6.000000
  0.028263  0.016318  0.021434      6.000000
  0.042395  0.024477  0.021434      6.000000
  0.056526  0.032636  0.021434      6.000000
  0.070658  0.040794  0.021434      6.000000
  0.084790  0.048953  0.021434      6.000000
  0.098921  0.057112  0.021434      6.000000
  0.113053  0.065271  0.021434      6.000000
 -0.113053 -0.065271  0.021434      6.000000
 -0.098921 -0.057112  0.021434      6.000000
 -0.084790 -0.048953  0.021434      6.000000
 -0.070658 -0.040794  0.021434      6.000000
 -0.056526 -0.032636  0.021434      6.000000
 -0.042395 -0.024477  0.021434      6.000000
 -0.028263 -0.016318  0.021434      6.000000
 -0.014132 -0.008159  0.021434      6.000000
  0.014132  0.024477  0.021434     12.000000
  0.028263  0.032636  0.021434     12.000000
  0.042395  0.040794  0.021434     12.000000
  0.056526  0.048953  0.021434     12.000000
  0.070658  0.057112  0.021434     12.000000
  0.084790  0.065271  0.021434     12.000000
  0.098921  0.073430  0.021434     12.000000
  0.113053  0.081589  0.021434     12.000000
 -0.113053 -0.048953  0.021434     12.000000
 -0.098921 -0.040794  0.021434     12.000000
 -0.084790 -0.032636  0.021434     12.000000
 -0.070658 -0.024477  0.021434     12.000000
 -0.056526 -0.016318  0.021434     12.000000
 -0.042395 -0.008159  0.021434     12.000000
  0.028263  0.048953  0.021434     12.000000
  0.042395  0.057112  0.021434     12.000000
  0.056526  0.065271  0.021434     12.000000
  0.070658  0.073430  0.021434     12.000000
  0.084790  0.081589  0.021434     12.000000
  0.098921  0.089748  0.021434     12.000000
  0.113053  0.097907  0.021434     12.000000
 -0.113053 -0.032636  0.021434     12.000000
 -0.098921 -0.024477  0.021434     12.000000
 -0.084790 -0.016318  0.021434     12.000000
 -0.070658 -0.008159  0.021434     12.000000
  0.042395  0.073430  0.021434     12.000000
  0.056526  0.081589  0.021434     12.000000
  0.070658  0.089748  0.021434     12.000000
  0.084790  0.097907  0.021434     12.000000
  0.098921  0.106066  0.021434     12.000000
  0.113053  0.114225  0.021434     12.000000
 -0.113053 -0.016318  0.021434     12.000000
 -0.098921 -0.008159  0.021434     12.000000
  0.056526  0.097907  0.021434     12.000000
  0.070658  0.106066  0.021434     12.000000
  0.084790  0.114225  0.021434     12.000000
  0.098921  0.122383  0.021434     12.000000
  0.113053  0.130542  0.021434     12.000000
  0.070658  0.122383  0.021434     12.000000
  0.084790  0.130542  0.021434     12.000000
  0.000000  0.000000  0.042867      2.000000
  0.014132  0.008159  0.042867      6.000000
  0.028263  0.016318  0.042867      6.000000
  0.042395  0.024477  0.042867      6.000000
  0.056526  0.032636  0.042867      6.000000
  0.070658  0.040794  0.042867      6.000000
  0.084790  0.048953  0.042867      6.000000
  0.098921  0.057112  0.042867      6.000000
  0.113053  0.065271  0.042867      6.000000
 -0.113053 -0.065271  0.042867      6.000000
 -0.098921 -0.057112  0.042867      6.000000
 -0.084790 -0.048953  0.042867      6.000000
 -0.070658 -0.040794  0.042867      6.000000
 -0.056526 -0.032636  0.042867      6.000000
 -0.042395 -0.024477  0.042867      6.000000
 -0.028263 -0.016318  0.042867      6.000000
 -0.014132 -0.008159  0.042867      6.000000
  0.014132  0.024477  0.042867     12.000000
  0.028263  0.032636  0.042867     12.000000
  0.042395  0.040794  0.042867     12.000000
  0.056526  0.048953  0.042867     12.000000
  0.070658  0.057112  0.042867     12.000000
  0.084790  0.065271  0.042867     12.000000
  0.098921  0.073430  0.042867     12.000000
  0.113053  0.081589  0.042867     12.000000
 -0.113053 -0.048953  0.042867     12.000000
 -0.098921 -0.040794  0.042867     12.000000
 -0.084790 -0.032636  0.042867     12.000000
 -0.070658 -0.024477  0.042867     12.000000
 -0.056526 -0.016318  0.042867     12.000000
 -0.042395 -0.008159  0.042867     12.000000
  0.028263  0.048953  0.042867     12.000000
  0.042395  0.057112  0.042867     12.000000
  0.056526  0.065271  0.042867     12.000000
  0.070658  0.073430  0.042867     12.000000
  0.084790  0.081589  0.042867     12.000000
  0.098921  0.089748  0.042867     12.000000
  0.113053  0.097907  0.042867     12.000000
 -0.113053 -0.032636  0.042867     12.000000
 -0.098921 -0.024477  0.042867     12.000000
 -0.084790 -0.016318  0.042867     12.000000
 -0.070658 -0.008159  0.042867     12.000000
  0.042395  0.073430  0.042867     12.000000
  0.056526  0.081589  0.042867     12.000000
  0.070658  0.089748  0.042867     12.000000
  0.084790  0.097907  0.042867     12.000000
  0.098921  0.106066  0.042867     12.000000
  0.113053  0.114225  0.042867     12.000000
 -0.113053 -0.016318  0.042867     12.000000
 -0.098921 -0.008159  0.042867     12.000000
  0.056526  0.097907  0.042867     12.000000
  0.070658  0.106066  0.042867     12.000000
  0.084790  0.114225  0.042867     12.000000
  0.098921  0.122383  0.042867     12.000000
  0.113053  0.130542  0.042867     12.000000
  0.070658  0.122383  0.042867     12.000000
  0.084790  0.130542  0.042867     12.000000
  0.000000  0.000000  0.064301      2.000000
  0.014132  0.008159  0.064301      6.000000
  0.028263  0.016318  0.064301      6.000000
  0.042395  0.024477  0.064301      6.000000
  0.056526  0.032636  0.064301      6.000000
  0.070658  0.040794  0.064301      6.000000
  0.084790  0.048953  0.064301      6.000000
  0.098921  0.057112  0.064301      6.000000
  0.113053  0.065271  0.064301      6.000000
 -0.113053 -0.065271  0.064301      6.000000
 -0.098921 -0.057112  0.064301      6.000000
 -0.084790 -0.048953  0.064301      6.000000
 -0.070658 -0.040794  0.064301      6.000000
 -0.056526 -0.032636  0.064301      6.000000
 -0.042395 -0.024477  0.064301      6.000000
 -0.028263 -0.016318  0.064301      6.000000
 -0.014132 -0.008159  0.064301      6.000000
  0.014132  0.024477  0.064301     12.000000
  0.028263  0.032636  0.064301     12.000000
  0.042395  0.040794  0.064301     12.000000
  0.056526  0.048953  0.064301     12.000000
  0.070658  0.057112  0.064301     12.000000
  0.084790  0.065271  0.064301     12.000000
  0.098921  0.073430  0.064301     12.000000
  0.113053  0.081589  0.064301     12.000000
 -0.113053 -0.048953  0.064301     12.000000
 -0.098921 -0.040794  0.064301     12.000000
 -0.084790 -0.032636  0.064301     12.000000
 -0.070658 -0.024477  0.064301     12.000000
 -0.056526 -0.016318  0.064301     12.000000
 -0.042395 -0.008159  0.064301     12.000000
  0.028263  0.048953  0.064301     12.000000
  0.042395  0.057112  0.064301     12.000000
  0.056526  0.065271  0.064301     12.000000
  0.070658  0.073430  0.064301     12.000000
  0.084790  0.081589  0.064301     12.000000
  0.098921  0.089748  0.064301     12.000000
  0.113053  0.097907  0.064301     12.000000
 -0.113053 -0.032636  0.064301     12.000000
 -0.098921 -0.024477  0.064301     12.000000
 -0.084790 -0.016318  0.064301     12.000000
 -0.070658 -0.008159  0.064301     12.000000
  0.042395  0.073430  0.064301     12.000000
  0.056526  0.081589  0.064301     12.000000
  0.070658  0.089748  0.064301     12.000000
  0.084790  0.097907  0.064301     12.000000
  0.098921  0.106066  0.064301     12.000000
  0.113053  0.114225  0.064301     12.000000
 -0.113053 -0.016318  0.064301     12.000000
 -0.098921 -0.008159  0.064301     12.000000
  0.056526  0.097907  0.064301     12.000000
  0.070658  0.106066  0.064301     12.000000
  0.084790  0.114225  0.064301     12.000000
  0.098921  0.122383  0.064301     12.000000
  0.113053  0.130542  0.064301     12.000000
  0.070658  0.122383  0.064301     12.000000
  0.084790  0.130542  0.064301     12.000000
  0.000000  0.000000  0.085735      2.000000
  0.014132  0.008159  0.085735      6.000000
  0.028263  0.016318  0.085735      6.000000
  0.042395  0.024477  0.085735      6.000000
  0.056526  0.032636  0.085735      6.000000
  0.070658  0.040794  0.085735      6.000000
  0.084790  0.048953  0.085735      6.000000
  0.098921  0.057112  0.085735      6.000000
  0.113053  0.065271  0.085735      6.000000
 -0.113053 -0.065271  0.085735      6.000000
 -0.098921 -0.057112  0.085735      6.000000
 -0.084790 -0.048953  0.085735      6.000000
 -0.070658 -0.040794  0.085735      6.000000
 -0.056526 -0.032636  0.085735      6.000000
 -0.042395 -0.024477  0.085735      6.000000
 -0.028263 -0.016318  0.085735      6.000000
 -0.014132 -0.008159  0.085735      6.000000
  0.014132  0.024477  0.085735     12.000000
  0.028263  0.032636  0.085735     12.000000
  0.042395  0.040794  0.085735     12.000000
  0.056526  0.048953  0.085735     12.000000
  0.070658  0.057112  0.085735     12.000000
  0.084790  0.065271  0.085735     12.000000
  0.098921  0.073430  0.085735     12.000000
  0.113053  0.081589  0.085735     12.000000
 -0.113053 -0.048953  0.085735     12.000000
 -0.098921 -0.040794  0.085735     12.000000
 -0.084790 -0.032636  0.085735     12.000000
 -0.070658 -0.024477  0.085735     12.000000
 -0.056526 -0.016318  0.085735     12.000000
 -0.042395 -0.008159  0.085735     12.000000
  0.028263  0.048953  0.085735     12.000000
  0.042395  0.057112  0.085735     12.000000
  0.056526  0.065271  0.085735     12.000000
  0.070658  0.073430  0.085735     12.000000
  0.084790  0.081589  0.085735     12.000000
  0.098921  0.089748  0.085735     12.000000
  0.113053  0.097907  0.085735     12.000000
 -0.113053 -0.032636  0.085735     12.000000
 -0.098921 -0.024477  0.085735     12.000000
 -0.084790 -0.016318  0.085735     12.000000
 -0.070658 -0.008159  0.085735     12.000000
  0.042395  0.073430  0.085735     12.000000
  0.056526  0.081589  0.085735     12.000000
  0.070658  0.089748  0.085735     12.000000
  0.084790  0.097907  0.085735     12.000000
  0.098921  0.106066  0.085735     12.000000
  0.113053  0.114225  0.085735     12.000000
 -0.113053 -0.016318  0.085735     12.000000
 -0.098921 -0.008159  0.085735     12.000000
  0.056526  0.097907  0.085735     12.000000
  0.070658  0.106066  0.085735     12.000000
  0.084790  0.114225  0.085735     12.000000
  0.098921  0.122383  0.085735     12.000000
  0.113053  0.130542  0.085735     12.000000
  0.070658  0.122383  0.085735     12.000000
  0.084790  0.130542  0.085735     12.000000
 
 TETIRR: Found   3823 inequivalent tetrahedra from    15606


--------------------------------------------------------------------------------------------------------




 Dimension of arrays:
   k-points           NKPTS =    261   k-points in BZ     NKDIM =    261   number of bands    NBANDS=     24
   number of dos      NEDOS =    301   number of ions     NIONS =      3
   non local maximal  LDIM  =      6   non local SUM 2l+1 LMDIM =     18
   total plane-waves  NPLWV =  17280
   max r-space proj   IRMAX =      1   max aug-charges    IRDMAX=   4059
   dimension x,y,z NGX =    24 NGY =   24 NGZ =   30
   dimension x,y,z NGXF=    32 NGYF=   32 NGZF=   40
   support grid    NGXF=    32 NGYF=   32 NGZF=   40
   ions per type =               2   1
 NGX,Y,Z   is equivalent  to a cutoff of   9.59,  9.59,  9.62 a.u.
 NGXF,Y,Z  is equivalent  to a cutoff of  12.78, 12.78, 12.83 a.u.


 I would recommend the setting:
   dimension x,y,z NGX =    23 NGY =   23 NGZ =   29
 SYSTEM =  unknown system                          
 POSCAR =  Ge Sr                                   

 Startparameter for this run:
   NWRITE =      2    write-flag & timer
   PREC   = med       medium, high low
   ISTART =      0    job   : 0-new  1-cont  2-samecut
   ICHARG =      1    charge: 1-file 2-atom 10-const
   ISPIN  =      1    spin polarized calculation?
   LNONCOLLINEAR =      F non collinear calculations
   LSORBIT =      F    spin-orbit coupling
   INIWAV =      1    electr: 0-lowe 1-rand  2-diag
   LASPH  =      F    aspherical Exc in radial PAW
   METAGGA=      F    non-selfconsistent MetaGGA calc.

 Electronic Relaxation 1
   ENCUT  =  520.0 eV  38.22 Ry    6.18 a.u.   7.74  7.74  9.64*2*pi/ulx,y,z
   ENINI  =  520.0     initial cutoff
   ENAUG  =  531.4 eV  augmentation charge cutoff
   NELM   =     60;   NELMIN=  2; NELMDL=  0     # of ELM steps 
   EDIFF  = 0.1E-03   stopping-criterion for ELM
   LREAL  =      F    real-space projection
   LCOMPAT=      F    compatible to vasp.4.4
   LREAL_COMPAT= F    compatible to vasp.4.5.1-3
   GGA_COMPAT  = T    GGA compatible to vasp.4.4-vasp.4.6
   LMAXPAW     = -100 max onsite density
   LMAXMIX     =    2 max onsite mixed and CHGCAR
   VOSKOWN=      0    Vosko Wilk Nusair interpolation
   ROPT   =    0.00000   0.00000
 Ionic relaxation
   EDIFFG = 0.1E-02   stopping-criterion for IOM
   NSW    =      0    number of steps for IOM
   NBLOCK =      1;   KBLOCK =      1    inner block; outer block 
   IBRION =     -1    ionic relax: 0-MD 1-quasi-New 2-CG
   NFREE  =      0    steps in history (QN), initial steepest desc. (CG)
   ISIF   =      2    stress and relaxation
   IWAVPR =     10    prediction:  0-non 1-charg 2-wave 3-comb
   ISYM   =      2    0-nonsym 1-usesym 2-fastsym
   LCORR  =      T    Harris-Foulkes like correction to forces

   POTIM  = 0.5000    time-step for ionic-motion
   TEIN   =    0.0    initial temperature
   TEBEG  =    0.0;   TEEND  =   0.0 temperature during run
   SMASS  =  -3.00    Nose mass-parameter (am)
   estimated Nose-frequenzy (Omega)   =  0.10E-29 period in steps =****** mass=  -0.396E-27a.u.
   NPACO  =    256;   APACO  = 16.0  distance and # of slots for P.C.
   PSTRESS=    0.0 pullay stress

  Mass of Ions in am
   POMASS =  72.61 87.62
  Ionic Valenz
   ZVAL   =  14.00 10.00
  Atomic Wigner-Seitz radii
   RWIGS  =  -1.00 -1.00
   NELECT =      38.0000    total number of electrons
   NUPDOWN=      -1.0000    fix difference up-down

 DOS related values:
   EMIN   =  10.00;   EMAX   =-10.00  energy-range for DOS
   EFERMI =   0.00
   ISMEAR =    -5;   SIGMA  =   0.20  broadening in eV -4-tet -1-fermi 0-gaus

 Electronic relaxation 2 (details)
   IALGO  =     68    algorithm
   LDIAG  =      T    sub-space diagonalisation
   IMIX   =      4    mixing-type and parameters
     AMIX     =   0.40;   BMIX     =  1.00
     AMIX_MAG =   1.60;   BMIX_MAG =  1.00
     AMIN     =   0.10
     WC   =   100.;   INIMIX=   1;  MIXPRE=   1

 Intra band minimization:
   WEIMIN = 0.0000     energy-eigenvalue tresh-hold
   EBREAK =  0.11E-05  absolut break condition
   DEPER  =   0.30     relativ break condition  

   TIME   =   0.40     timestep for ELM

  volume/ion in A,a.u.               =      25.93       174.98
  Fermi-wavevector in a.u.,A,eV,Ry     =   1.289337  2.436493 22.618175  1.662389
  Thomas-Fermi vector in A             =   2.421236
 
 Write flags
   LWAVE  =      F    write WAVECAR
   LCHARG =      T    write CHGCAR
   LVTOT  =      F    write LOCPOT, local potential
   LELF   =      T    write electronic localiz. function (ELF)
   LORBIT =     11    0 simple, 1 ext, 2 COOP (PROOUT)


 Dipole corrections
   LMONO  =      F    monopole corrections only (constant potential shift)
   LDIPOL =      F    correct potential (dipole corrections)
   IDIPOL =      0    1-x, 2-y, 3-z, 4-all directions 
   EPSILON=  1.0000000 bulk dielectric constant

 Exchange correlation treatment:
   GGA     =    --    GGA type
   LEXCH   =     8    internal setting for exchange type
   VOSKOWN=      0    Vosko Wilk Nusair interpolation
   LHFCALC =     F    Hartree Fock is set to
   LHFONE  =     F    Hartree Fock one center treatment
   AEXX    =    0.0000 exact exchange contribution

 Linear response parameters
   LEPSILON=     F    determine dielectric tensor
   LRPA    =     F    only Hartree local field effects (RPA)
   LNABLA  =     F    use nabla operator in PAW spheres
   LVEL    =     F    velocity operator in full k-point grid
   LINTERFAST=   F  fast interpolation
   KINTER  =     0    interpolate to denser k-point grid
   CSHIFT  =0.1000    complex shift for real part using Kramers Kronig
   OMEGAMAX=  -1.0    maximum frequency

 Orbital magnetization related:
   ORBITALMAG=     F  switch on orbital magnetization
   LCHIMAG   =     F  perturbation theory with respect to B field



--------------------------------------------------------------------------------------------------------


 Static calculation
 charge density and potential will be updated during run
 non-spin polarized calculation
 RMM-DIIS sequential band-by-band and
  variant of blocked Davidson during initial phase
 perform sub-space diagonalisation
    before iterative eigenvector-optimisation
 modified Broyden-mixing scheme, WC =      100.0
 initial mixing is a Kerker type mixing with AMIX =  0.4000 and BMIX =      1.0000
 Hartree-type preconditioning will be used
 using additional bands            5
 reciprocal scheme for non local part
 use partial core corrections
 calculate Harris-corrections to forces 
   (improved forces if not selfconsistent)
 use gradient corrections 
 use of overlap-Matrix (Vanderbilt PP)
 Fermi weights with tetrahedron method with Bloechl corrections


--------------------------------------------------------------------------------------------------------


  energy-cutoff  :      520.00
  volume of cell :       77.79
      direct lattice vectors                 reciprocal lattice vectors
     4.162546644  0.000000000  0.000000000     0.240237548  0.138701216  0.000000000
    -2.081273322  3.604871071  0.000000000     0.000000000  0.277402431  0.000000000
     0.000000000  0.000000000  5.183943586     0.000000000  0.000000000  0.192903334

  length of vectors
     4.162546644  4.162546586  5.183943586     0.277402428  0.277402431  0.192903334


 
 k-points in units of 2pi/SCALE and weight: KPOINTS created by Atomic Simulation Env
   0.00000000  0.00000000  0.00000000       0.000
   0.01413162  0.00815890  0.00000000       0.002
   0.02826324  0.01631779  0.00000000       0.002
   0.04239486  0.02447669  0.00000000       0.002
   0.05652648  0.03263558  0.00000000       0.002
   0.07065810  0.04079448  0.00000000       0.002
   0.08478972  0.04895337  0.00000000       0.002
   0.09892134  0.05711227  0.00000000       0.002
   0.11305296  0.06527116  0.00000000       0.002
   0.01413162  0.02447669  0.00000000       0.002
   0.02826324  0.03263558  0.00000000       0.005
   0.04239486  0.04079448  0.00000000       0.005
   0.05652648  0.04895337  0.00000000       0.005
   0.07065810  0.05711227  0.00000000       0.005
   0.08478972  0.06527116  0.00000000       0.005
   0.09892134  0.07343006  0.00000000       0.005
   0.11305296  0.08158895  0.00000000       0.002
   0.02826324  0.04895337  0.00000000       0.002
   0.04239486  0.05711227  0.00000000       0.005
   0.05652648  0.06527116  0.00000000       0.005
   0.07065810  0.07343006  0.00000000       0.005
   0.08478972  0.08158895  0.00000000       0.005
   0.09892134  0.08974785  0.00000000       0.005
   0.04239486  0.07343006  0.00000000       0.002
   0.05652648  0.08158895  0.00000000       0.005
   0.07065810  0.08974785  0.00000000       0.005
   0.08478972  0.09790674  0.00000000       0.005
   0.09892134  0.10606564  0.00000000       0.002
   0.05652648  0.09790674  0.00000000       0.002
   0.07065810  0.10606564  0.00000000       0.005
   0.08478972  0.11422453  0.00000000       0.005
   0.07065810  0.12238343  0.00000000       0.002
   0.08478972  0.13054232  0.00000000       0.002
   0.00000000  0.00000000  0.02143370       0.001
   0.01413162  0.00815890  0.02143370       0.002
   0.02826324  0.01631779  0.02143370       0.002
   0.04239486  0.02447669  0.02143370       0.002
   0.05652648  0.03263558  0.02143370       0.002
   0.07065810  0.04079448  0.02143370       0.002
   0.08478972  0.04895337  0.02143370       0.002
   0.09892134  0.05711227  0.02143370       0.002
   0.11305296  0.06527116  0.02143370       0.002
  -0.11305296 -0.06527116  0.02143370       0.002
  -0.09892134 -0.05711227  0.02143370       0.002
  -0.08478972 -0.04895337  0.02143370       0.002
  -0.07065810 -0.04079448  0.02143370       0.002
  -0.05652648 -0.03263558  0.02143370       0.002
  -0.04239486 -0.02447669  0.02143370       0.002
  -0.02826324 -0.01631779  0.02143370       0.002
  -0.01413162 -0.00815890  0.02143370       0.002
   0.01413162  0.02447669  0.02143370       0.005
   0.02826324  0.03263558  0.02143370       0.005
   0.04239486  0.04079448  0.02143370       0.005
   0.05652648  0.04895337  0.02143370       0.005
   0.07065810  0.05711227  0.02143370       0.005
   0.08478972  0.06527116  0.02143370       0.005
   0.09892134  0.07343006  0.02143370       0.005
   0.11305296  0.08158895  0.02143370       0.005
  -0.11305296 -0.04895337  0.02143370       0.005
  -0.09892134 -0.04079448  0.02143370       0.005
  -0.08478972 -0.03263558  0.02143370       0.005
  -0.07065810 -0.02447669  0.02143370       0.005
  -0.05652648 -0.01631779  0.02143370       0.005
  -0.04239486 -0.00815890  0.02143370       0.005
   0.02826324  0.04895337  0.02143370       0.005
   0.04239486  0.05711227  0.02143370       0.005
   0.05652648  0.06527116  0.02143370       0.005
   0.07065810  0.07343006  0.02143370       0.005
   0.08478972  0.08158895  0.02143370       0.005
   0.09892134  0.08974785  0.02143370       0.005
   0.11305296  0.09790674  0.02143370       0.005
  -0.11305296 -0.03263558  0.02143370       0.005
  -0.09892134 -0.02447669  0.02143370       0.005
  -0.08478972 -0.01631779  0.02143370       0.005
  -0.07065810 -0.00815890  0.02143370       0.005
   0.04239486  0.07343006  0.02143370       0.005
   0.05652648  0.08158895  0.02143370       0.005
   0.07065810  0.08974785  0.02143370       0.005
   0.08478972  0.09790674  0.02143370       0.005
   0.09892134  0.10606564  0.02143370       0.005
   0.11305296  0.11422453  0.02143370       0.005
  -0.11305296 -0.01631779  0.02143370       0.005
  -0.09892134 -0.00815890  0.02143370       0.005
   0.05652648  0.09790674  0.02143370       0.005
   0.07065810  0.10606564  0.02143370       0.005
   0.08478972  0.11422453  0.02143370       0.005
   0.09892134  0.12238343  0.02143370       0.005
   0.11305296  0.13054232  0.02143370       0.005
   0.07065810  0.12238343  0.02143370       0.005
   0.08478972  0.13054232  0.02143370       0.005
   0.00000000  0.00000000  0.04286741       0.001
   0.01413162  0.00815890  0.04286741       0.002
   0.02826324  0.01631779  0.04286741       0.002
   0.04239486  0.02447669  0.04286741       0.002
   0.05652648  0.03263558  0.04286741       0.002
   0.07065810  0.04079448  0.04286741       0.002
   0.08478972  0.04895337  0.04286741       0.002
   0.09892134  0.05711227  0.04286741       0.002
   0.11305296  0.06527116  0.04286741       0.002
  -0.11305296 -0.06527116  0.04286741       0.002
  -0.09892134 -0.05711227  0.04286741       0.002
  -0.08478972 -0.04895337  0.04286741       0.002
  -0.07065810 -0.04079448  0.04286741       0.002
  -0.05652648 -0.03263558  0.04286741       0.002
  -0.04239486 -0.02447669  0.04286741       0.002
  -0.02826324 -0.01631779  0.04286741       0.002
  -0.01413162 -0.00815890  0.04286741       0.002
   0.01413162  0.02447669  0.04286741       0.005
   0.02826324  0.03263558  0.04286741       0.005
   0.04239486  0.04079448  0.04286741       0.005
   0.05652648  0.04895337  0.04286741       0.005
   0.07065810  0.05711227  0.04286741       0.005
   0.08478972  0.06527116  0.04286741       0.005
   0.09892134  0.07343006  0.04286741       0.005
   0.11305296  0.08158895  0.04286741       0.005
  -0.11305296 -0.04895337  0.04286741       0.005
  -0.09892134 -0.04079448  0.04286741       0.005
  -0.08478972 -0.03263558  0.04286741       0.005
  -0.07065810 -0.02447669  0.04286741       0.005
  -0.05652648 -0.01631779  0.04286741       0.005
  -0.04239486 -0.00815890  0.04286741       0.005
   0.02826324  0.04895337  0.04286741       0.005
   0.04239486  0.05711227  0.04286741       0.005
   0.05652648  0.06527116  0.04286741       0.005
   0.07065810  0.07343006  0.04286741       0.005
   0.08478972  0.08158895  0.04286741       0.005
   0.09892134  0.08974785  0.04286741       0.005
   0.11305296  0.09790674  0.04286741       0.005
  -0.11305296 -0.03263558  0.04286741       0.005
  -0.09892134 -0.02447669  0.04286741       0.005
  -0.08478972 -0.01631779  0.04286741       0.005
  -0.07065810 -0.00815890  0.04286741       0.005
   0.04239486  0.07343006  0.04286741       0.005
   0.05652648  0.08158895  0.04286741       0.005
   0.07065810  0.08974785  0.04286741       0.005
   0.08478972  0.09790674  0.04286741       0.005
   0.09892134  0.10606564  0.04286741       0.005
   0.11305296  0.11422453  0.04286741       0.005
  -0.11305296 -0.01631779  0.04286741       0.005
  -0.09892134 -0.00815890  0.04286741       0.005
   0.05652648  0.09790674  0.04286741       0.005
   0.07065810  0.10606564  0.04286741       0.005
   0.08478972  0.11422453  0.04286741       0.005
   0.09892134  0.12238343  0.04286741       0.005
   0.11305296  0.13054232  0.04286741       0.005
   0.07065810  0.12238343  0.04286741       0.005
   0.08478972  0.13054232  0.04286741       0.005
   0.00000000  0.00000000  0.06430111       0.001
   0.01413162  0.00815890  0.06430111       0.002
   0.02826324  0.01631779  0.06430111       0.002
   0.04239486  0.02447669  0.06430111       0.002
   0.05652648  0.03263558  0.06430111       0.002
   0.07065810  0.04079448  0.06430111       0.002
   0.08478972  0.04895337  0.06430111       0.002
   0.09892134  0.05711227  0.06430111       0.002
   0.11305296  0.06527116  0.06430111       0.002
  -0.11305296 -0.06527116  0.06430111       0.002
  -0.09892134 -0.05711227  0.06430111       0.002
  -0.08478972 -0.04895337  0.06430111       0.002
  -0.07065810 -0.04079448  0.06430111       0.002
  -0.05652648 -0.03263558  0.06430111       0.002
  -0.04239486 -0.02447669  0.06430111       0.002
  -0.02826324 -0.01631779  0.06430111       0.002
  -0.01413162 -0.00815890  0.06430111       0.002
   0.01413162  0.02447669  0.06430111       0.005
   0.02826324  0.03263558  0.06430111       0.005
   0.04239486  0.04079448  0.06430111       0.005
   0.05652648  0.04895337  0.06430111       0.005
   0.07065810  0.05711227  0.06430111       0.005
   0.08478972  0.06527116  0.06430111       0.005
   0.09892134  0.07343006  0.06430111       0.005
   0.11305296  0.08158895  0.06430111       0.005
  -0.11305296 -0.04895337  0.06430111       0.005
  -0.09892134 -0.04079448  0.06430111       0.005
  -0.08478972 -0.03263558  0.06430111       0.005
  -0.07065810 -0.02447669  0.06430111       0.005
  -0.05652648 -0.01631779  0.06430111       0.005
  -0.04239486 -0.00815890  0.06430111       0.005
   0.02826324  0.04895337  0.06430111       0.005
   0.04239486  0.05711227  0.06430111       0.005
   0.05652648  0.06527116  0.06430111       0.005
   0.07065810  0.07343006  0.06430111       0.005
   0.08478972  0.08158895  0.06430111       0.005
   0.09892134  0.08974785  0.06430111       0.005
   0.11305296  0.09790674  0.06430111       0.005
  -0.11305296 -0.03263558  0.06430111       0.005
  -0.09892134 -0.02447669  0.06430111       0.005
  -0.08478972 -0.01631779  0.06430111       0.005
  -0.07065810 -0.00815890  0.06430111       0.005
   0.04239486  0.07343006  0.06430111       0.005
   0.05652648  0.08158895  0.06430111       0.005
   0.07065810  0.08974785  0.06430111       0.005
   0.08478972  0.09790674  0.06430111       0.005
   0.09892134  0.10606564  0.06430111       0.005
   0.11305296  0.11422453  0.06430111       0.005
  -0.11305296 -0.01631779  0.06430111       0.005
  -0.09892134 -0.00815890  0.06430111       0.005
   0.05652648  0.09790674  0.06430111       0.005
   0.07065810  0.10606564  0.06430111       0.005
   0.08478972  0.11422453  0.06430111       0.005
   0.09892134  0.12238343  0.06430111       0.005
   0.11305296  0.13054232  0.06430111       0.005
   0.07065810  0.12238343  0.06430111       0.005
   0.08478972  0.13054232  0.06430111       0.005
   0.00000000  0.00000000  0.08573482       0.001
   0.01413162  0.00815890  0.08573482       0.002
   0.02826324  0.01631779  0.08573482       0.002
   0.04239486  0.02447669  0.08573482       0.002
   0.05652648  0.03263558  0.08573482       0.002
   0.07065810  0.04079448  0.08573482       0.002
   0.08478972  0.04895337  0.08573482       0.002
   0.09892134  0.05711227  0.08573482       0.002
   0.11305296  0.06527116  0.08573482       0.002
  -0.11305296 -0.06527116  0.08573482       0.002
  -0.09892134 -0.05711227  0.08573482       0.002
  -0.08478972 -0.04895337  0.08573482       0.002
  -0.07065810 -0.04079448  0.08573482       0.002
  -0.05652648 -0.03263558  0.08573482       0.002
  -0.04239486 -0.02447669  0.08573482       0.002
  -0.02826324 -0.01631779  0.08573482       0.002
  -0.01413162 -0.00815890  0.08573482       0.002
   0.01413162  0.02447669  0.08573482       0.005
   0.02826324  0.03263558  0.08573482       0.005
   0.04239486  0.04079448  0.08573482       0.005
   0.05652648  0.04895337  0.08573482       0.005
   0.07065810  0.05711227  0.08573482       0.005
   0.08478972  0.06527116  0.08573482       0.005
   0.09892134  0.07343006  0.08573482       0.005
   0.11305296  0.08158895  0.08573482       0.005
  -0.11305296 -0.04895337  0.08573482       0.005
  -0.09892134 -0.04079448  0.08573482       0.005
  -0.08478972 -0.03263558  0.08573482       0.005
  -0.07065810 -0.02447669  0.08573482       0.005
  -0.05652648 -0.01631779  0.08573482       0.005
  -0.04239486 -0.00815890  0.08573482       0.005
   0.02826324  0.04895337  0.08573482       0.005
   0.04239486  0.05711227  0.08573482       0.005
   0.05652648  0.06527116  0.08573482       0.005
   0.07065810  0.07343006  0.08573482       0.005
   0.08478972  0.08158895  0.08573482       0.005
   0.09892134  0.08974785  0.08573482       0.005
   0.11305296  0.09790674  0.08573482       0.005
  -0.11305296 -0.03263558  0.08573482       0.005
  -0.09892134 -0.02447669  0.08573482       0.005
  -0.08478972 -0.01631779  0.08573482       0.005
  -0.07065810 -0.00815890  0.08573482       0.005
   0.04239486  0.07343006  0.08573482       0.005
   0.05652648  0.08158895  0.08573482       0.005
   0.07065810  0.08974785  0.08573482       0.005
   0.08478972  0.09790674  0.08573482       0.005
   0.09892134  0.10606564  0.08573482       0.005
   0.11305296  0.11422453  0.08573482       0.005
  -0.11305296 -0.01631779  0.08573482       0.005
  -0.09892134 -0.00815890  0.08573482       0.005
   0.05652648  0.09790674  0.08573482       0.005
   0.07065810  0.10606564  0.08573482       0.005
   0.08478972  0.11422453  0.08573482       0.005
   0.09892134  0.12238343  0.08573482       0.005
   0.11305296  0.13054232  0.08573482       0.005
   0.07065810  0.12238343  0.08573482       0.005
   0.08478972  0.13054232  0.08573482       0.005
 
 k-points in reciprocal lattice and weights: KPOINTS created by Atomic Simulation Env
   0.00000000  0.00000000  0.00000000       0.000
   0.05882353  0.00000000  0.00000000       0.002
   0.11764706  0.00000000  0.00000000       0.002
   0.17647059  0.00000000  0.00000000       0.002
   0.23529412  0.00000000  0.00000000       0.002
   0.29411765  0.00000000  0.00000000       0.002
   0.35294118  0.00000000  0.00000000       0.002
   0.41176471  0.00000000  0.00000000       0.002
   0.47058824  0.00000000  0.00000000       0.002
   0.05882353  0.05882353  0.00000000       0.002
   0.11764706  0.05882353  0.00000000       0.005
   0.17647059  0.05882353  0.00000000       0.005
   0.23529412  0.05882353  0.00000000       0.005
   0.29411765  0.05882353  0.00000000       0.005
   0.35294118  0.05882353  0.00000000       0.005
   0.41176471  0.05882353  0.00000000       0.005
   0.47058824  0.05882353  0.00000000       0.002
   0.11764706  0.11764706  0.00000000       0.002
   0.17647059  0.11764706  0.00000000       0.005
   0.23529412  0.11764706  0.00000000       0.005
   0.29411765  0.11764706  0.00000000       0.005
   0.35294118  0.11764706  0.00000000       0.005
   0.41176471  0.11764706  0.00000000       0.005
   0.17647059  0.17647059  0.00000000       0.002
   0.23529412  0.17647059  0.00000000       0.005
   0.29411765  0.17647059  0.00000000       0.005
   0.35294118  0.17647059  0.00000000       0.005
   0.41176471  0.17647059  0.00000000       0.002
   0.23529412  0.23529412  0.00000000       0.002
   0.29411765  0.23529412  0.00000000       0.005
   0.35294118  0.23529412  0.00000000       0.005
   0.29411765  0.29411765  0.00000000       0.002
   0.35294118  0.29411765  0.00000000       0.002
   0.00000000  0.00000000  0.11111111       0.001
   0.05882353  0.00000000  0.11111111       0.002
   0.11764706  0.00000000  0.11111111       0.002
   0.17647059  0.00000000  0.11111111       0.002
   0.23529412  0.00000000  0.11111111       0.002
   0.29411765  0.00000000  0.11111111       0.002
   0.35294118  0.00000000  0.11111111       0.002
   0.41176471  0.00000000  0.11111111       0.002
   0.47058824  0.00000000  0.11111111       0.002
  -0.47058824  0.00000000  0.11111111       0.002
  -0.41176471  0.00000000  0.11111111       0.002
  -0.35294118  0.00000000  0.11111111       0.002
  -0.29411765  0.00000000  0.11111111       0.002
  -0.23529412  0.00000000  0.11111111       0.002
  -0.17647059  0.00000000  0.11111111       0.002
  -0.11764706  0.00000000  0.11111111       0.002
  -0.05882353  0.00000000  0.11111111       0.002
   0.05882353  0.05882353  0.11111111       0.005
   0.11764706  0.05882353  0.11111111       0.005
   0.17647059  0.05882353  0.11111111       0.005
   0.23529412  0.05882353  0.11111111       0.005
   0.29411765  0.05882353  0.11111111       0.005
   0.35294118  0.05882353  0.11111111       0.005
   0.41176471  0.05882353  0.11111111       0.005
   0.47058824  0.05882353  0.11111111       0.005
  -0.47058824  0.05882353  0.11111111       0.005
  -0.41176471  0.05882353  0.11111111       0.005
  -0.35294118  0.05882353  0.11111111       0.005
  -0.29411765  0.05882353  0.11111111       0.005
  -0.23529412  0.05882353  0.11111111       0.005
  -0.17647059  0.05882353  0.11111111       0.005
   0.11764706  0.11764706  0.11111111       0.005
   0.17647059  0.11764706  0.11111111       0.005
   0.23529412  0.11764706  0.11111111       0.005
   0.29411765  0.11764706  0.11111111       0.005
   0.35294118  0.11764706  0.11111111       0.005
   0.41176471  0.11764706  0.11111111       0.005
   0.47058824  0.11764706  0.11111111       0.005
  -0.47058824  0.11764706  0.11111111       0.005
  -0.41176471  0.11764706  0.11111111       0.005
  -0.35294118  0.11764706  0.11111111       0.005
  -0.29411765  0.11764706  0.11111111       0.005
   0.17647059  0.17647059  0.11111111       0.005
   0.23529412  0.17647059  0.11111111       0.005
   0.29411765  0.17647059  0.11111111       0.005
   0.35294118  0.17647059  0.11111111       0.005
   0.41176471  0.17647059  0.11111111       0.005
   0.47058824  0.17647059  0.11111111       0.005
  -0.47058824  0.17647059  0.11111111       0.005
  -0.41176471  0.17647059  0.11111111       0.005
   0.23529412  0.23529412  0.11111111       0.005
   0.29411765  0.23529412  0.11111111       0.005
   0.35294118  0.23529412  0.11111111       0.005
   0.41176471  0.23529412  0.11111111       0.005
   0.47058824  0.23529412  0.11111111       0.005
   0.29411765  0.29411765  0.11111111       0.005
   0.35294118  0.29411765  0.11111111       0.005
   0.00000000  0.00000000  0.22222222       0.001
   0.05882353  0.00000000  0.22222222       0.002
   0.11764706  0.00000000  0.22222222       0.002
   0.17647059  0.00000000  0.22222222       0.002
   0.23529412  0.00000000  0.22222222       0.002
   0.29411765  0.00000000  0.22222222       0.002
   0.35294118  0.00000000  0.22222222       0.002
   0.41176471  0.00000000  0.22222222       0.002
   0.47058824  0.00000000  0.22222222       0.002
  -0.47058824  0.00000000  0.22222222       0.002
  -0.41176471  0.00000000  0.22222222       0.002
  -0.35294118  0.00000000  0.22222222       0.002
  -0.29411765  0.00000000  0.22222222       0.002
  -0.23529412  0.00000000  0.22222222       0.002
  -0.17647059  0.00000000  0.22222222       0.002
  -0.11764706  0.00000000  0.22222222       0.002
  -0.05882353  0.00000000  0.22222222       0.002
   0.05882353  0.05882353  0.22222222       0.005
   0.11764706  0.05882353  0.22222222       0.005
   0.17647059  0.05882353  0.22222222       0.005
   0.23529412  0.05882353  0.22222222       0.005
   0.29411765  0.05882353  0.22222222       0.005
   0.35294118  0.05882353  0.22222222       0.005
   0.41176471  0.05882353  0.22222222       0.005
   0.47058824  0.05882353  0.22222222       0.005
  -0.47058824  0.05882353  0.22222222       0.005
  -0.41176471  0.05882353  0.22222222       0.005
  -0.35294118  0.05882353  0.22222222       0.005
  -0.29411765  0.05882353  0.22222222       0.005
  -0.23529412  0.05882353  0.22222222       0.005
  -0.17647059  0.05882353  0.22222222       0.005
   0.11764706  0.11764706  0.22222222       0.005
   0.17647059  0.11764706  0.22222222       0.005
   0.23529412  0.11764706  0.22222222       0.005
   0.29411765  0.11764706  0.22222222       0.005
   0.35294118  0.11764706  0.22222222       0.005
   0.41176471  0.11764706  0.22222222       0.005
   0.47058824  0.11764706  0.22222222       0.005
  -0.47058824  0.11764706  0.22222222       0.005
  -0.41176471  0.11764706  0.22222222       0.005
  -0.35294118  0.11764706  0.22222222       0.005
  -0.29411765  0.11764706  0.22222222       0.005
   0.17647059  0.17647059  0.22222222       0.005
   0.23529412  0.17647059  0.22222222       0.005
   0.29411765  0.17647059  0.22222222       0.005
   0.35294118  0.17647059  0.22222222       0.005
   0.41176471  0.17647059  0.22222222       0.005
   0.47058824  0.17647059  0.22222222       0.005
  -0.47058824  0.17647059  0.22222222       0.005
  -0.41176471  0.17647059  0.22222222       0.005
   0.23529412  0.23529412  0.22222222       0.005
   0.29411765  0.23529412  0.22222222       0.005
   0.35294118  0.23529412  0.22222222       0.005
   0.41176471  0.23529412  0.22222222       0.005
   0.47058824  0.23529412  0.22222222       0.005
   0.29411765  0.29411765  0.22222222       0.005
   0.35294118  0.29411765  0.22222222       0.005
   0.00000000  0.00000000  0.33333333       0.001
   0.05882353  0.00000000  0.33333333       0.002
   0.11764706  0.00000000  0.33333333       0.002
   0.17647059  0.00000000  0.33333333       0.002
   0.23529412  0.00000000  0.33333333       0.002
   0.29411765  0.00000000  0.33333333       0.002
   0.35294118  0.00000000  0.33333333       0.002
   0.41176471  0.00000000  0.33333333       0.002
   0.47058824  0.00000000  0.33333333       0.002
  -0.47058824  0.00000000  0.33333333       0.002
  -0.41176471  0.00000000  0.33333333       0.002
  -0.35294118  0.00000000  0.33333333       0.002
  -0.29411765  0.00000000  0.33333333       0.002
  -0.23529412  0.00000000  0.33333333       0.002
  -0.17647059  0.00000000  0.33333333       0.002
  -0.11764706  0.00000000  0.33333333       0.002
  -0.05882353  0.00000000  0.33333333       0.002
   0.05882353  0.05882353  0.33333333       0.005
   0.11764706  0.05882353  0.33333333       0.005
   0.17647059  0.05882353  0.33333333       0.005
   0.23529412  0.05882353  0.33333333       0.005
   0.29411765  0.05882353  0.33333333       0.005
   0.35294118  0.05882353  0.33333333       0.005
   0.41176471  0.05882353  0.33333333       0.005
   0.47058824  0.05882353  0.33333333       0.005
  -0.47058824  0.05882353  0.33333333       0.005
  -0.41176471  0.05882353  0.33333333       0.005
  -0.35294118  0.05882353  0.33333333       0.005
  -0.29411765  0.05882353  0.33333333       0.005
  -0.23529412  0.05882353  0.33333333       0.005
  -0.17647059  0.05882353  0.33333333       0.005
   0.11764706  0.11764706  0.33333333       0.005
   0.17647059  0.11764706  0.33333333       0.005
   0.23529412  0.11764706  0.33333333       0.005
   0.29411765  0.11764706  0.33333333       0.005
   0.35294118  0.11764706  0.33333333       0.005
   0.41176471  0.11764706  0.33333333       0.005
   0.47058824  0.11764706  0.33333333       0.005
  -0.47058824  0.11764706  0.33333333       0.005
  -0.41176471  0.11764706  0.33333333       0.005
  -0.35294118  0.11764706  0.33333333       0.005
  -0.29411765  0.11764706  0.33333333       0.005
   0.17647059  0.17647059  0.33333333       0.005
   0.23529412  0.17647059  0.33333333       0.005
   0.29411765  0.17647059  0.33333333       0.005
   0.35294118  0.17647059  0.33333333       0.005
   0.41176471  0.17647059  0.33333333       0.005
   0.47058824  0.17647059  0.33333333       0.005
  -0.47058824  0.17647059  0.33333333       0.005
  -0.41176471  0.17647059  0.33333333       0.005
   0.23529412  0.23529412  0.33333333       0.005
   0.29411765  0.23529412  0.33333333       0.005
   0.35294118  0.23529412  0.33333333       0.005
   0.41176471  0.23529412  0.33333333       0.005
   0.47058824  0.23529412  0.33333333       0.005
   0.29411765  0.29411765  0.33333333       0.005
   0.35294118  0.29411765  0.33333333       0.005
   0.00000000  0.00000000  0.44444444       0.001
   0.05882353  0.00000000  0.44444444       0.002
   0.11764706  0.00000000  0.44444444       0.002
   0.17647059  0.00000000  0.44444444       0.002
   0.23529412  0.00000000  0.44444444       0.002
   0.29411765  0.00000000  0.44444444       0.002
   0.35294118  0.00000000  0.44444444       0.002
   0.41176471  0.00000000  0.44444444       0.002
   0.47058824  0.00000000  0.44444444       0.002
  -0.47058824  0.00000000  0.44444444       0.002
  -0.41176471  0.00000000  0.44444444       0.002
  -0.35294118  0.00000000  0.44444444       0.002
  -0.29411765  0.00000000  0.44444444       0.002
  -0.23529412  0.00000000  0.44444444       0.002
  -0.17647059  0.00000000  0.44444444       0.002
  -0.11764706  0.00000000  0.44444444       0.002
  -0.05882353  0.00000000  0.44444444       0.002
   0.05882353  0.05882353  0.44444444       0.005
   0.11764706  0.05882353  0.44444444       0.005
   0.17647059  0.05882353  0.44444444       0.005
   0.23529412  0.05882353  0.44444444       0.005
   0.29411765  0.05882353  0.44444444       0.005
   0.35294118  0.05882353  0.44444444       0.005
   0.41176471  0.05882353  0.44444444       0.005
   0.47058824  0.05882353  0.44444444       0.005
  -0.47058824  0.05882353  0.44444444       0.005
  -0.41176471  0.05882353  0.44444444       0.005
  -0.35294118  0.05882353  0.44444444       0.005
  -0.29411765  0.05882353  0.44444444       0.005
  -0.23529412  0.05882353  0.44444444       0.005
  -0.17647059  0.05882353  0.44444444       0.005
   0.11764706  0.11764706  0.44444444       0.005
   0.17647059  0.11764706  0.44444444       0.005
   0.23529412  0.11764706  0.44444444       0.005
   0.29411765  0.11764706  0.44444444       0.005
   0.35294118  0.11764706  0.44444444       0.005
   0.41176471  0.11764706  0.44444444       0.005
   0.47058824  0.11764706  0.44444444       0.005
  -0.47058824  0.11764706  0.44444444       0.005
  -0.41176471  0.11764706  0.44444444       0.005
  -0.35294118  0.11764706  0.44444444       0.005
  -0.29411765  0.11764706  0.44444444       0.005
   0.17647059  0.17647059  0.44444444       0.005
   0.23529412  0.17647059  0.44444444       0.005
   0.29411765  0.17647059  0.44444444       0.005
   0.35294118  0.17647059  0.44444444       0.005
   0.41176471  0.17647059  0.44444444       0.005
   0.47058824  0.17647059  0.44444444       0.005
  -0.47058824  0.17647059  0.44444444       0.005
  -0.41176471  0.17647059  0.44444444       0.005
   0.23529412  0.23529412  0.44444444       0.005
   0.29411765  0.23529412  0.44444444       0.005
   0.35294118  0.23529412  0.44444444       0.005
   0.41176471  0.23529412  0.44444444       0.005
   0.47058824  0.23529412  0.44444444       0.005
   0.29411765  0.29411765  0.44444444       0.005
   0.35294118  0.29411765  0.44444444       0.005
 
 position of ions in fractional coordinates (direct lattice) 
   0.33333300  0.66666700  0.40433385
   0.66666700  0.33333300  0.59566615
   0.00000000  0.00000000  0.00000000
 
 position of ions in cartesian coordinates  (Angst):
  -0.00000208  2.40324858  2.09604387
   2.08127540  1.20162249  3.08789971
   0.00000000  0.00000000  0.00000000
 


--------------------------------------------------------------------------------------------------------


 k-point  1 :  0.00000.00000.0000  plane waves:    2125
 k-point  2 :  0.05880.00000.0000  plane waves:    2121
 k-point  3 :  0.11760.00000.0000  plane waves:    2115
 k-point  4 :  0.17650.00000.0000  plane waves:    2093
 k-point  5 :  0.23530.00000.0000  plane waves:    2091
 k-point  6 :  0.29410.00000.0000  plane waves:    2091
 k-point  7 :  0.35290.00000.0000  plane waves:    2092
 k-point  8 :  0.41180.00000.0000  plane waves:    2094
 k-point  9 :  0.47060.00000.0000  plane waves:    2088
 k-point 10 :  0.05880.05880.0000  plane waves:    2119
 k-point 11 :  0.11760.05880.0000  plane waves:    2100
 k-point 12 :  0.17650.05880.0000  plane waves:    2096
 k-point 13 :  0.23530.05880.0000  plane waves:    2092
 k-point 14 :  0.29410.05880.0000  plane waves:    2082
 k-point 15 :  0.35290.05880.0000  plane waves:    2078
 k-point 16 :  0.41180.05880.0000  plane waves:    2091
 k-point 17 :  0.47060.05880.0000  plane waves:    2100
 k-point 18 :  0.11760.11760.0000  plane waves:    2091
 k-point 19 :  0.17650.11760.0000  plane waves:    2090
 k-point 20 :  0.23530.11760.0000  plane waves:    2091
 k-point 21 :  0.29410.11760.0000  plane waves:    2094
 k-point 22 :  0.35290.11760.0000  plane waves:    2094
 k-point 23 :  0.41180.11760.0000  plane waves:    2102
 k-point 24 :  0.17650.17650.0000  plane waves:    2094
 k-point 25 :  0.23530.17650.0000  plane waves:    2103
 k-point 26 :  0.29410.17650.0000  plane waves:    2103
 k-point 27 :  0.35290.17650.0000  plane waves:    2100
 k-point 28 :  0.41180.17650.0000  plane waves:    2094
 k-point 29 :  0.23530.23530.0000  plane waves:    2110
 k-point 30 :  0.29410.23530.0000  plane waves:    2104
 k-point 31 :  0.35290.23530.0000  plane waves:    2098
 k-point 32 :  0.29410.29410.0000  plane waves:    2092
 k-point 33 :  0.35290.29410.0000  plane waves:    2104
 k-point 34 :  0.00000.00000.1111  plane waves:    2119
 k-point 35 :  0.05880.00000.1111  plane waves:    2115
 k-point 36 :  0.11760.00000.1111  plane waves:    2112
 k-point 37 :  0.17650.00000.1111  plane waves:    2102
 k-point 38 :  0.23530.00000.1111  plane waves:    2091
 k-point 39 :  0.29410.00000.1111  plane waves:    2089
 k-point 40 :  0.35290.00000.1111  plane waves:    2084
 k-point 41 :  0.41180.00000.1111  plane waves:    2083
 k-point 42 :  0.47060.00000.1111  plane waves:    2093
 k-point 43 :  -.47060.00000.1111  plane waves:    2093
 k-point 44 :  -.41180.00000.1111  plane waves:    2083
 k-point 45 :  -.35290.00000.1111  plane waves:    2084
 k-point 46 :  -.29410.00000.1111  plane waves:    2089
 k-point 47 :  -.23530.00000.1111  plane waves:    2091
 k-point 48 :  -.17650.00000.1111  plane waves:    2102
 k-point 49 :  -.11760.00000.1111  plane waves:    2112
 k-point 50 :  -.05880.00000.1111  plane waves:    2115
 k-point 51 :  0.05880.05880.1111  plane waves:    2116
 k-point 52 :  0.11760.05880.1111  plane waves:    2105
 k-point 53 :  0.17650.05880.1111  plane waves:    2096
 k-point 54 :  0.23530.05880.1111  plane waves:    2091
 k-point 55 :  0.29410.05880.1111  plane waves:    2090
 k-point 56 :  0.35290.05880.1111  plane waves:    2095
 k-point 57 :  0.41180.05880.1111  plane waves:    2094
 k-point 58 :  0.47060.05880.1111  plane waves:    2094
 k-point 59 :  -.47060.05880.1111  plane waves:    2094
 k-point 60 :  -.41180.05880.1111  plane waves:    2095
 k-point 61 :  -.35290.05880.1111  plane waves:    2090
 k-point 62 :  -.29410.05880.1111  plane waves:    2091
 k-point 63 :  -.23530.05880.1111  plane waves:    2096
 k-point 64 :  -.17650.05880.1111  plane waves:    2105
 k-point 65 :  0.11760.11760.1111  plane waves:    2100
 k-point 66 :  0.17650.11760.1111  plane waves:    2095
 k-point 67 :  0.23530.11760.1111  plane waves:    2094
 k-point 68 :  0.29410.11760.1111  plane waves:    2092
 k-point 69 :  0.35290.11760.1111  plane waves:    2096
 k-point 70 :  0.41180.11760.1111  plane waves:    2093
 k-point 71 :  0.47060.11760.1111  plane waves:    2093
 k-point 72 :  -.47060.11760.1111  plane waves:    2096
 k-point 73 :  -.41180.11760.1111  plane waves:    2092
 k-point 74 :  -.35290.11760.1111  plane waves:    2094
 k-point 75 :  -.29410.11760.1111  plane waves:    2095
 k-point 76 :  0.17650.17650.1111  plane waves:    2095
 k-point 77 :  0.23530.17650.1111  plane waves:    2096
 k-point 78 :  0.29410.17650.1111  plane waves:    2095
 k-point 79 :  0.35290.17650.1111  plane waves:    2100
 k-point 80 :  0.41180.17650.1111  plane waves:    2095
 k-point 81 :  0.47060.17650.1111  plane waves:    2100
 k-point 82 :  -.47060.17650.1111  plane waves:    2095
 k-point 83 :  -.41180.17650.1111  plane waves:    2096
 k-point 84 :  0.23530.23530.1111  plane waves:    2102
 k-point 85 :  0.29410.23530.1111  plane waves:    2093
 k-point 86 :  0.35290.23530.1111  plane waves:    2098
 k-point 87 :  0.41180.23530.1111  plane waves:    2098
 k-point 88 :  0.47060.23530.1111  plane waves:    2093
 k-point 89 :  0.29410.29410.1111  plane waves:    2103
 k-point 90 :  0.35290.29410.1111  plane waves:    2106
 k-point 91 :  0.00000.00000.2222  plane waves:    2113
 k-point 92 :  0.05880.00000.2222  plane waves:    2110
 k-point 93 :  0.11760.00000.2222  plane waves:    2104
 k-point 94 :  0.17650.00000.2222  plane waves:    2098
 k-point 95 :  0.23530.00000.2222  plane waves:    2097
 k-point 96 :  0.29410.00000.2222  plane waves:    2089
 k-point 97 :  0.35290.00000.2222  plane waves:    2097
 k-point 98 :  0.41180.00000.2222  plane waves:    2097
 k-point 99 :  0.47060.00000.2222  plane waves:    2094
 k-point ** :  -.47060.00000.2222  plane waves:    2094
 k-point ** :  -.41180.00000.2222  plane waves:    2097
 k-point ** :  -.35290.00000.2222  plane waves:    2097
 k-point ** :  -.29410.00000.2222  plane waves:    2089
 k-point ** :  -.23530.00000.2222  plane waves:    2097
 k-point ** :  -.17650.00000.2222  plane waves:    2098
 k-point ** :  -.11760.00000.2222  plane waves:    2104
 k-point ** :  -.05880.00000.2222  plane waves:    2110
 k-point ** :  0.05880.05880.2222  plane waves:    2105
 k-point ** :  0.11760.05880.2222  plane waves:    2093
 k-point ** :  0.17650.05880.2222  plane waves:    2090
 k-point ** :  0.23530.05880.2222  plane waves:    2094
 k-point ** :  0.29410.05880.2222  plane waves:    2096
 k-point ** :  0.35290.05880.2222  plane waves:    2095
 k-point ** :  0.41180.05880.2222  plane waves:    2095
 k-point ** :  0.47060.05880.2222  plane waves:    2095
 k-point ** :  -.47060.05880.2222  plane waves:    2095
 k-point ** :  -.41180.05880.2222  plane waves:    2095
 k-point ** :  -.35290.05880.2222  plane waves:    2096
 k-point ** :  -.29410.05880.2222  plane waves:    2094
 k-point ** :  -.23530.05880.2222  plane waves:    2090
 k-point ** :  -.17650.05880.2222  plane waves:    2093
 k-point ** :  0.11760.11760.2222  plane waves:    2090
 k-point ** :  0.17650.11760.2222  plane waves:    2094
 k-point ** :  0.23530.11760.2222  plane waves:    2094
 k-point ** :  0.29410.11760.2222  plane waves:    2099
 k-point ** :  0.35290.11760.2222  plane waves:    2101
 k-point ** :  0.41180.11760.2222  plane waves:    2094
 k-point ** :  0.47060.11760.2222  plane waves:    2094
 k-point ** :  -.47060.11760.2222  plane waves:    2101
 k-point ** :  -.41180.11760.2222  plane waves:    2099
 k-point ** :  -.35290.11760.2222  plane waves:    2094
 k-point ** :  -.29410.11760.2222  plane waves:    2094
 k-point ** :  0.17650.17650.2222  plane waves:    2096
 k-point ** :  0.23530.17650.2222  plane waves:    2096
 k-point ** :  0.29410.17650.2222  plane waves:    2095
 k-point ** :  0.35290.17650.2222  plane waves:    2094
 k-point ** :  0.41180.17650.2222  plane waves:    2095
 k-point ** :  0.47060.17650.2222  plane waves:    2094
 k-point ** :  -.47060.17650.2222  plane waves:    2095
 k-point ** :  -.41180.17650.2222  plane waves:    2096
 k-point ** :  0.23530.23530.2222  plane waves:    2092
 k-point ** :  0.29410.23530.2222  plane waves:    2092
 k-point ** :  0.35290.23530.2222  plane waves:    2087
 k-point ** :  0.41180.23530.2222  plane waves:    2087
 k-point ** :  0.47060.23530.2222  plane waves:    2092
 k-point ** :  0.29410.29410.2222  plane waves:    2089
 k-point ** :  0.35290.29410.2222  plane waves:    2091
 k-point ** :  0.00000.00000.3333  plane waves:    2089
 k-point ** :  0.05880.00000.3333  plane waves:    2089
 k-point ** :  0.11760.00000.3333  plane waves:    2095
 k-point ** :  0.17650.00000.3333  plane waves:    2087
 k-point ** :  0.23530.00000.3333  plane waves:    2080
 k-point ** :  0.29410.00000.3333  plane waves:    2091
 k-point ** :  0.35290.00000.3333  plane waves:    2095
 k-point ** :  0.41180.00000.3333  plane waves:    2102
 k-point ** :  0.47060.00000.3333  plane waves:    2097
 k-point ** :  -.47060.00000.3333  plane waves:    2097
 k-point ** :  -.41180.00000.3333  plane waves:    2102
 k-point ** :  -.35290.00000.3333  plane waves:    2095
 k-point ** :  -.29410.00000.3333  plane waves:    2091
 k-point ** :  -.23530.00000.3333  plane waves:    2080
 k-point ** :  -.17650.00000.3333  plane waves:    2087
 k-point ** :  -.11760.00000.3333  plane waves:    2095
 k-point ** :  -.05880.00000.3333  plane waves:    2089
 k-point ** :  0.05880.05880.3333  plane waves:    2089
 k-point ** :  0.11760.05880.3333  plane waves:    2091
 k-point ** :  0.17650.05880.3333  plane waves:    2087
 k-point ** :  0.23530.05880.3333  plane waves:    2090
 k-point ** :  0.29410.05880.3333  plane waves:    2093
 k-point ** :  0.35290.05880.3333  plane waves:    2099
 k-point ** :  0.41180.05880.3333  plane waves:    2096
 k-point ** :  0.47060.05880.3333  plane waves:    2091
 k-point ** :  -.47060.05880.3333  plane waves:    2096
 k-point ** :  -.41180.05880.3333  plane waves:    2099
 k-point ** :  -.35290.05880.3333  plane waves:    2093
 k-point ** :  -.29410.05880.3333  plane waves:    2090
 k-point ** :  -.23530.05880.3333  plane waves:    2087
 k-point ** :  -.17650.05880.3333  plane waves:    2091
 k-point ** :  0.11760.11760.3333  plane waves:    2090
 k-point ** :  0.17650.11760.3333  plane waves:    2092
 k-point ** :  0.23530.11760.3333  plane waves:    2091
 k-point ** :  0.29410.11760.3333  plane waves:    2094
 k-point ** :  0.35290.11760.3333  plane waves:    2095
 k-point ** :  0.41180.11760.3333  plane waves:    2092
 k-point ** :  0.47060.11760.3333  plane waves:    2092
 k-point ** :  -.47060.11760.3333  plane waves:    2095
 k-point ** :  -.41180.11760.3333  plane waves:    2094
 k-point ** :  -.35290.11760.3333  plane waves:    2091
 k-point ** :  -.29410.11760.3333  plane waves:    2092
 k-point ** :  0.17650.17650.3333  plane waves:    2094
 k-point ** :  0.23530.17650.3333  plane waves:    2099
 k-point ** :  0.29410.17650.3333  plane waves:    2095
 k-point ** :  0.35290.17650.3333  plane waves:    2094
 k-point ** :  0.41180.17650.3333  plane waves:    2091
 k-point ** :  0.47060.17650.3333  plane waves:    2094
 k-point ** :  -.47060.17650.3333  plane waves:    2095
 k-point ** :  -.41180.17650.3333  plane waves:    2099
 k-point ** :  0.23530.23530.3333  plane waves:    2101
 k-point ** :  0.29410.23530.3333  plane waves:    2097
 k-point ** :  0.35290.23530.3333  plane waves:    2093
 k-point ** :  0.41180.23530.3333  plane waves:    2093
 k-point ** :  0.47060.23530.3333  plane waves:    2097
 k-point ** :  0.29410.29410.3333  plane waves:    2089
 k-point ** :  0.35290.29410.3333  plane waves:    2091
 k-point ** :  0.00000.00000.4444  plane waves:    2078
 k-point ** :  0.05880.00000.4444  plane waves:    2084
 k-point ** :  0.11760.00000.4444  plane waves:    2091
 k-point ** :  0.17650.00000.4444  plane waves:    2093
 k-point ** :  0.23530.00000.4444  plane waves:    2087
 k-point ** :  0.29410.00000.4444  plane waves:    2093
 k-point ** :  0.35290.00000.4444  plane waves:    2098
 k-point ** :  0.41180.00000.4444  plane waves:    2102
 k-point ** :  0.47060.00000.4444  plane waves:    2096
 k-point ** :  -.47060.00000.4444  plane waves:    2096
 k-point ** :  -.41180.00000.4444  plane waves:    2102
 k-point ** :  -.35290.00000.4444  plane waves:    2098
 k-point ** :  -.29410.00000.4444  plane waves:    2093
 k-point ** :  -.23530.00000.4444  plane waves:    2087
 k-point ** :  -.17650.00000.4444  plane waves:    2093
 k-point ** :  -.11760.00000.4444  plane waves:    2091
 k-point ** :  -.05880.00000.4444  plane waves:    2084
 k-point ** :  0.05880.05880.4444  plane waves:    2084
 k-point ** :  0.11760.05880.4444  plane waves:    2093
 k-point ** :  0.17650.05880.4444  plane waves:    2093
 k-point ** :  0.23530.05880.4444  plane waves:    2084
 k-point ** :  0.29410.05880.4444  plane waves:    2095
[...]
      2     -21.3965      2.00000
      3     -21.3368      2.00000
      4     -21.3027      2.00000
      5     -21.2918      2.00000
      6     -21.2716      2.00000
      7     -21.2495      2.00000
      8     -21.2466      2.00000
      9     -21.1978      2.00000
     10     -21.1892      2.00000
     11     -21.1786      2.00000
     12     -14.5752      2.00000
     13     -14.5472      2.00000
     14     -14.4557      2.00000
     15      -5.8866      2.00000
     16      -4.5563      2.00000
     17      -0.1833      2.00000
     18       0.8135      2.00000
     19       1.1548      2.00000
     20       5.0349      0.00000
     21       5.4395      0.00000
     22       6.3263      0.00000
     23       7.0196      0.00000
     24       8.2851      0.00000

 k-point 252 :       0.4706    0.1765    0.4444
  band No.  band energies     occupation 
      1     -32.3519      2.00000
      2     -21.3961      2.00000
      3     -21.3398      2.00000
      4     -21.2994      2.00000
      5     -21.2921      2.00000
      6     -21.2749      2.00000
      7     -21.2491      2.00000
      8     -21.2438      2.00000
      9     -21.1991      2.00000
     10     -21.1883      2.00000
     11     -21.1787      2.00000
     12     -14.5705      2.00000
     13     -14.5497      2.00000
     14     -14.4522      2.00000
     15      -6.0323      2.00000
     16      -4.3644      2.00000
     17      -0.1669      2.00000
     18       0.6046      2.00000
     19       1.3520      2.00000
     20       5.1972      0.00000
     21       5.3618      0.00000
     22       6.3475      0.00000
     23       7.0684      0.00000
     24       8.1437      0.00000

 k-point 253 :      -0.4706    0.1765    0.4444
  band No.  band energies     occupation 
      1     -32.3531      2.00000
      2     -21.3950      2.00000
      3     -21.3467      2.00000
      4     -21.2939      2.00000
      5     -21.2912      2.00000
      6     -21.2813      2.00000
      7     -21.2493      2.00000
      8     -21.2372      2.00000
      9     -21.2019      2.00000
     10     -21.1866      2.00000
     11     -21.1787      2.00000
     12     -14.5592      2.00000
     13     -14.5544      2.00000
     14     -14.4424      2.00000
     15      -6.3224      2.00000
     16      -3.9593      2.00000
     17      -0.1033      2.00000
     18       0.3135      2.00000
     19       1.6971      2.00000
     20       5.1955      0.00000
     21       5.4963      0.00000
     22       6.4015      0.00000
     23       7.0218      0.00000
     24       7.6157      0.00000

 k-point 254 :      -0.4118    0.1765    0.4444
  band No.  band energies     occupation 
      1     -32.3550      2.00000
      2     -21.3933      2.00000
      3     -21.3546      2.00000
      4     -21.2960      2.00000
      5     -21.2904      2.00000
      6     -21.2799      2.00000
      7     -21.2495      2.00000
      8     -21.2300      2.00000
      9     -21.2051      2.00000
     10     -21.1850      2.00000
     11     -21.1790      2.00000
     12     -14.5673      2.00000
     13     -14.5357      2.00000
     14     -14.4281      2.00000
     15      -6.6259      2.00000
     16      -3.5017      2.00000
     17      -0.1633      2.00000
     18       0.2965      2.00000
     19       2.0611      2.00000
     20       5.0082      0.00000
     21       5.7606      0.00000
     22       6.4323      0.00000
     23       6.9638      0.00000
     24       7.0418      0.00000

 k-point 255 :       0.2353    0.2353    0.4444
  band No.  band energies     occupation 
      1     -32.3532      2.00000
      2     -21.3960      2.00000
      3     -21.3456      2.00000
      4     -21.2929      2.00000
      5     -21.2877      2.00000
      6     -21.2852      2.00000
      7     -21.2509      2.00000
      8     -21.2369      2.00000
      9     -21.2022      2.00000
     10     -21.1864      2.00000
     11     -21.1781      2.00000
     12     -14.5577      2.00000
     13     -14.5485      2.00000
     14     -14.4495      2.00000
     15      -6.3299      2.00000
     16      -3.9434      2.00000
     17      -0.0854      2.00000
     18       0.2035      2.00000
     19       1.8278      2.00000
     20       5.1600      0.00000
     21       5.6306      0.00000
     22       6.4054      0.00000
     23       6.9738      0.00000
     24       7.3331      0.00000

 k-point 256 :       0.2941    0.2353    0.4444
  band No.  band energies     occupation 
      1     -32.3518      2.00000
      2     -21.3979      2.00000
      3     -21.3368      2.00000
      4     -21.2989      2.00000
      5     -21.2868      2.00000
      6     -21.2797      2.00000
      7     -21.2517      2.00000
      8     -21.2448      2.00000
      9     -21.1989      2.00000
     10     -21.1881      2.00000
     11     -21.1776      2.00000
     12     -14.5564      2.00000
     13     -14.5491      2.00000
     14     -14.4686      2.00000
     15      -6.0078      2.00000
     16      -4.3795      2.00000
     17      -0.2661      2.00000
     18       0.5055      2.00000
     19       1.5702      2.00000
     20       4.9690      0.00000
     21       5.7643      0.00000
     22       6.3690      0.00000
     23       7.0583      0.00000
     24       9.2421      0.00000

 k-point 257 :       0.3529    0.2353    0.4444
  band No.  band energies     occupation 
      1     -32.3511      2.00000
      2     -21.3989      2.00000
      3     -21.3299      2.00000
      4     -21.3053      2.00000
      5     -21.2865      2.00000
      6     -21.2735      2.00000
      7     -21.2528      2.00000
      8     -21.2508      2.00000
      9     -21.1963      2.00000
     10     -21.1896      2.00000
     11     -21.1774      2.00000
     12     -14.5585      2.00000
     13     -14.5452      2.00000
     14     -14.4803      2.00000
     15      -5.7349      2.00000
     16      -4.7125      2.00000
     17      -0.3726      2.00000
     18       0.8158      2.00000
     19       1.3012      2.00000
     20       4.8376      0.00000
     21       5.8364      0.00000
     22       6.3360      0.00000
     23       7.1799      0.00000
     24       7.9638      0.00000

 k-point 258 :       0.4118    0.2353    0.4444
  band No.  band energies     occupation 
      1     -32.3511      2.00000
      2     -21.3989      2.00000
      3     -21.3299      2.00000
      4     -21.3054      2.00000
      5     -21.2864      2.00000
      6     -21.2735      2.00000
      7     -21.2528      2.00000
      8     -21.2508      2.00000
      9     -21.1963      2.00000
     10     -21.1897      2.00000
     11     -21.1774      2.00000
     12     -14.5583      2.00000
     13     -14.5455      2.00000
     14     -14.4803      2.00000
     15      -5.7388      2.00000
     16      -4.7057      2.00000
     17      -0.3804      2.00000
     18       0.8428      2.00000
     19       1.2648      2.00000
     20       4.8783      0.00000
     21       5.8012      0.00000
     22       6.3308      0.00000
     23       7.2573      0.00000
     24       8.3561      0.00000

 k-point 259 :       0.4706    0.2353    0.4444
  band No.  band energies     occupation 
      1     -32.3518      2.00000
      2     -21.3979      2.00000
      3     -21.3367      2.00000
      4     -21.2991      2.00000
      5     -21.2867      2.00000
      6     -21.2797      2.00000
      7     -21.2517      2.00000
      8     -21.2448      2.00000
      9     -21.1989      2.00000
     10     -21.1881      2.00000
     11     -21.1776      2.00000
     12     -14.5557      2.00000
     13     -14.5499      2.00000
     14     -14.4685      2.00000
     15      -6.0118      2.00000
     16      -4.3697      2.00000
     17      -0.2846      2.00000
     18       0.5277      2.00000
     19       1.5344      2.00000
     20       5.0555      0.00000
     21       5.6855      0.00000
     22       6.3641      0.00000
     23       7.2540      0.00000
     24       7.6034      0.00000

 k-point 260 :       0.2941    0.2941    0.4444
  band No.  band energies     occupation 
      1     -32.3510      2.00000
      2     -21.3997      2.00000
      3     -21.3270      2.00000
      4     -21.3065      2.00000
      5     -21.2815      2.00000
      6     -21.2775      2.00000
      7     -21.2533      2.00000
      8     -21.2528      2.00000
      9     -21.1957      2.00000
     10     -21.1898      2.00000
     11     -21.1770      2.00000
     12     -14.5469      2.00000
     13     -14.5453      2.00000
     14     -14.4939      2.00000
     15      -5.6731      2.00000
     16      -4.7727      2.00000
     17      -0.4454      2.00000
     18       0.8176      2.00000
     19       1.3571      2.00000
     20       4.7499      0.00000
     21       6.0105      0.00000
     22       6.3267      0.00000
     23       7.5472      0.00000
     24       7.6902      0.00000

 k-point 261 :       0.3529    0.2941    0.4444
  band No.  band energies     occupation 
      1     -32.3507      2.00000
      2     -21.4003      2.00000
      3     -21.3210      2.00000
      4     -21.3117      2.00000
      5     -21.2802      2.00000
      6     -21.2747      2.00000
      7     -21.2572      2.00000
      8     -21.2538      2.00000
      9     -21.1938      2.00000
     10     -21.1912      2.00000
     11     -21.1768      2.00000
     12     -14.5440      2.00000
     13     -14.5380      2.00000
     14     -14.5083      2.00000
     15      -5.4341      2.00000
     16      -5.0332      2.00000
     17      -0.5039      2.00000
     18       1.0245      2.00000
     19       1.1966      2.00000
     20       4.6433      0.00000
     21       6.1304      0.00000
     22       6.2926      0.00000
     23       7.7073      0.00000
     24       7.9078      0.00000


--------------------------------------------------------------------------------------------------------


 soft charge-density along one line, spin component           1
         0         1         2         3         4         5         6         7         8         9
 total charge-density along one line
 
 pseudopotential strength for first ion, spin component:           1
-23.884   0.000   0.000   0.002   0.000  18.968   0.000   0.000
  0.000 -23.858   0.000   0.000   0.002   0.000  18.944   0.000
  0.000   0.000 -23.847   0.000   0.000   0.000   0.000  18.935
  0.002   0.000   0.000 -23.858   0.000  -0.001   0.000   0.000
  0.000   0.002   0.000   0.000 -23.884   0.000  -0.001   0.000
 18.968   0.000   0.000  -0.001   0.000 -13.982   0.000   0.000
  0.000  18.944   0.000   0.000  -0.001   0.000 -13.960   0.000
  0.000   0.000  18.935   0.000   0.000   0.000   0.000 -13.952
 -0.001   0.000   0.000  18.945   0.000   0.001   0.000   0.000
  0.000  -0.001   0.000   0.000  18.968   0.000   0.001   0.000
  0.000   0.000   0.002   0.000   0.000   0.000   0.000  -0.004
  0.000   0.000   0.000   0.000   0.000   0.000   0.000   0.000
  0.000   0.008   0.000   0.000   0.000   0.000  -0.003   0.000
  0.000   0.000   0.010   0.000   0.000   0.000   0.000  -0.003
  0.000   0.000   0.000   0.008   0.000   0.000   0.000   0.000
  0.000  -0.002   0.000   0.000   0.000   0.000   0.002   0.000
  0.000   0.000  -0.002   0.000   0.000   0.000   0.000   0.002
  0.000   0.000   0.000  -0.002   0.000   0.000   0.000   0.000
 total augmentation occupancy for first ion, spin component:           1
  2.053   0.000   0.000  -0.015   0.000   0.054   0.000   0.000  -0.016   0.000   0.000   0.000   0.000   0.000  -0.095   0.000
  0.000   2.043   0.000   0.000  -0.015   0.000   0.044   0.000   0.000  -0.016   0.000   0.000   0.075   0.000   0.000  -0.014
  0.000   0.000   2.034   0.000   0.000   0.000   0.000   0.035   0.000   0.000  -0.011   0.023   0.000  -0.038   0.000   0.000
 -0.015   0.000   0.000   2.043   0.000  -0.016   0.000   0.000   0.044   0.000   0.000   0.000   0.000   0.000   0.075   0.000
  0.000  -0.015   0.000   0.000   2.053   0.000  -0.016   0.000   0.000   0.054   0.000   0.000  -0.095   0.000   0.000   0.037
  0.054   0.000   0.000  -0.016   0.000   0.053   0.000   0.000  -0.018   0.000   0.000   0.000   0.000   0.000  -0.124   0.000
  0.000   0.044   0.000   0.000  -0.016   0.000   0.044   0.000   0.000  -0.018   0.000   0.000   0.092   0.000   0.000  -0.036
  0.000   0.000   0.035   0.000   0.000   0.000   0.000   0.036   0.000   0.000  -0.014   0.029   0.000  -0.055   0.000   0.000
 -0.016   0.000   0.000   0.044   0.000  -0.018   0.000   0.000   0.044   0.000   0.000   0.000   0.000   0.000   0.092   0.000
  0.000  -0.016   0.000   0.000   0.054   0.000  -0.018   0.000   0.000   0.053   0.000   0.000  -0.124   0.000   0.000   0.040
  0.000   0.000  -0.011   0.000   0.000   0.000   0.000  -0.014   0.000   0.000   1.730  -0.213   0.000  -0.167   0.000   0.000
  0.000   0.000   0.023   0.000   0.000   0.000   0.000   0.029   0.000   0.000  -0.213   0.152   0.000  -0.140   0.000   0.000
  0.000   0.075   0.000   0.000  -0.095   0.000   0.092   0.000   0.000  -0.124   0.000   0.000   0.950   0.000   0.000  -0.258
  0.000   0.000  -0.038   0.000   0.000   0.000   0.000  -0.055   0.000   0.000  -0.167  -0.140   0.000   1.056   0.000   0.000
 -0.095   0.000   0.000   0.075   0.000  -0.124   0.000   0.000   0.092   0.000   0.000   0.000   0.000   0.000   0.950   0.000
  0.000  -0.014   0.000   0.000   0.037   0.000  -0.036   0.000   0.000   0.040   0.000   0.000  -0.258   0.000   0.000   0.088
  0.000   0.000   0.028   0.000   0.000   0.000   0.000   0.007   0.000   0.000   0.053   0.043   0.000  -0.232   0.000   0.000
  0.037   0.000   0.000  -0.014   0.000   0.040   0.000   0.000  -0.036   0.000   0.000   0.000   0.000   0.000  -0.258   0.000


------------------------ aborting loop because EDIFF is reached ----------------------------------------


 


 total charge     
 
# of ion     s       p       d       tot
----------------------------------------
  1        1.161   1.167   9.987  12.316
  2        1.161   1.167   9.987  12.316
  3        2.016   5.760   0.241   8.017
------------------------------------------------
tot        4.339   8.095  20.215  32.649
 


--------------------------------------------------------------------------------------------------------



  FREE ENERGIE OF THE ION-ELECTRON SYSTEM (eV)
  ---------------------------------------------------
  free  energy   TOTEN  =       -12.419002 eV

  energy  without entropy=      -12.419002  energy(sigma->0) =      -12.419002
 
    CHARGE:  cpu time    1.38: real time    1.38
    FORLOC:  cpu time    0.00: real time    0.00
    FORNL :  cpu time    4.33: real time    4.33
    STRESS:  cpu time    7.79: real time    7.79
    FORCOR:  cpu time    0.01: real time    0.01
    FORHAR:  cpu time    0.00: real time    0.00
    MIXING:  cpu time    0.00: real time    0.00

  FORCE on cell =-STRESS in cart. coord.  units (eV):
  Direction    XX          YY          ZZ          XY          YZ          ZX
  --------------------------------------------------------------------------------------
  Alpha Z   237.97098   237.97098   237.97098
  Ewald    -906.31311  -906.31090 -1434.69319     0.00189     0.00048    -0.00080
  Hartree   740.18694   740.18799   298.16018     0.00091     0.00024    -0.00040
  E(xc)    -202.71029  -202.71001  -202.78816     0.00024     0.00000    -0.00001
  Local      41.95513    41.94837  1008.72388    -0.00585    -0.00070     0.00117
  n-local   -59.52235   -60.33102   -59.28386     0.76413    -0.57405     0.03931
  augment  -115.31338  -115.30947  -114.09094     0.00338    -0.00001     0.00001
  Kinetic   262.20386   266.43566   266.14781    -4.55906     0.49140    -0.31999
  Fock        0.00000     0.00000     0.00000     0.00000     0.00000     0.00000
  -------------------------------------------------------------------------------------
  Total       0.16969     0.16969     0.14669     0.00000     0.00000     0.00000
  in kB       3.49507     3.49507     3.02143     0.00000     0.00000     0.00000
  external pressure =        3.34 kB  Pullay stress =        0.00 kB


 VOLUME and BASIS-vectors are now :
 -----------------------------------------------------------------------------
  energy-cutoff  :      520.00
  volume of cell :       77.79
      direct lattice vectors                 reciprocal lattice vectors
     4.162546644  0.000000000  0.000000000     0.240237548  0.138701216  0.000000000
    -2.081273322  3.604871071  0.000000000     0.000000000  0.277402431  0.000000000
     0.000000000  0.000000000  5.183943586     0.000000000  0.000000000  0.192903334

  length of vectors
     4.162546644  4.162546586  5.183943586     0.277402428  0.277402431  0.192903334


 FORCES acting on ions
    electron-ion (+dipol)            ewald-force                    non-local-force                 convergence-correction
 -----------------------------------------------------------------------------------------------
   0.151E-03 -.795E-04 0.187E+03   0.126E-02 -.735E-03 -.199E+03   -.694E-17 -.347E-17 0.124E+02   -.225E-07 0.129E-07 0.617E-03
   -.151E-03 0.795E-04 -.187E+03   -.126E-02 0.735E-03 0.199E+03   0.139E-16 0.347E-17 -.124E+02   0.225E-07 -.129E-07 -.617E-03
   0.226E-14 0.561E-14 0.120E-13   -.122E-14 -.914E-14 -.639E-13   -.169E-20 0.000E+00 0.000E+00   -.123E-13 -.107E-13 0.444E-13
 -----------------------------------------------------------------------------------------------
   0.173E-11 -.263E-12 0.143E-10   -.258E-14 0.894E-15 -.355E-13   0.694E-17 0.000E+00 0.178E-14   -.812E-13 0.120E-12 -.459E-12
 
 
 POSITION                                       TOTAL-FORCE (eV/Angst)
 -----------------------------------------------------------------------------------
      0.00000      2.40325      2.09604         0.000000      0.000000     -0.068977
      2.08128      1.20162      3.08790         0.000000      0.000000      0.068977
      0.00000      0.00000      0.00000         0.000000      0.000000      0.000000
 -----------------------------------------------------------------------------------
    total drift:                                0.000000      0.000000      0.000000


--------------------------------------------------------------------------------------------------------


    POTLOK:  cpu time    0.02: real time    0.02


--------------------------------------------------------------------------------------------------------


     LOOP+:  cpu time  516.14: real time  516.49
    4ORBIT:  cpu time    0.00: real time    0.00
 


 total charge     
 
# of ion     s       p       d       tot
----------------------------------------
  1        1.161   1.167   9.987  12.316
  2        1.161   1.167   9.987  12.316
  3        2.016   5.760   0.241   8.017
------------------------------------------------
tot        4.339   8.095  20.215  32.649
 
 BZINTS: Fermi energy:  3.527216; 38.000000 electrons
         Band energy:-591.007512;  BLOECHL correction: -0.002569

 total amount of memory used by VASP on root node 167282. kBytes
========================================================================

   base      :    30000. kBytes
   nonl-proj :    80029. kBytes
   fftplans  :      664. kBytes
   grid      :     1435. kBytes
   one-center:       31. kBytes
   wavefun   :    55123. kBytes
 
  
  
 General timing and accounting informations for this job:
 ========================================================
  
                  Total CPU time used (sec):      525.328
                            User time (sec):      524.892
                          System time (sec):        0.436
                         Elapsed time (sec):      526.030
  
                   Maximum memory used (kb):      173772.
                   Average memory used (kb):           0.
  
                          Minor page faults:         9860
                          Major page faults:            0
                 Voluntary context switches:          640
