Running on host node27
Time is Mon Jun 25 23:25:12 CDT 2012
node27 node27 node27 node27
 running on    4 nodes
 distr:  one band on    2 nodes,    2 groups
 vasp.5.2.2 15Apr09 complex 
 POSCAR found type information on POSCAR  Ge Sr
 POSCAR found :  2 types and    3 ions
 LDA part: xc-table for Pade appr. of Perdew
 POSCAR, INCAR and KPOINTS ok, starting setup
 WARNING: small aliasing (wrap around) errors must be expected
 FFT: planning ...(           1 )
 reading WAVECAR
 charge-density read from file: unknown                                 
 WARNING: random wavefunctions but no delay for mixing, default for NELMDL
 entering main loop
       N       E                     dE             d eps       ncg     rms          rms(c)
DAV:   1     0.580305488306E+03    0.58031E+03   -0.14590E+04 16078   0.433E+03
DAV:   2     0.117055297298E+03   -0.46325E+03   -0.43642E+03 12740   0.118E+03
DAV:   3     0.332324704669E+01   -0.11373E+03   -0.10886E+03 12904   0.290E+02
DAV:   4    -0.113716509699E+02   -0.14695E+02   -0.14194E+02 15760   0.106E+02
DAV:   5    -0.123503499200E+02   -0.97870E+00   -0.96828E+00 17684   0.250E+01    0.366E-01
RMM:   6    -0.123925044033E+02   -0.42154E-01   -0.42938E-01 19992   0.456E+00    0.154E-01
RMM:   7    -0.124042047385E+02   -0.11700E-01   -0.13849E-01 24057   0.161E+00    0.901E-02
RMM:   8    -0.124099156224E+02   -0.57109E-02   -0.54183E-02 22807   0.105E+00    0.802E-02
RMM:   9    -0.124134033859E+02   -0.34878E-02   -0.33414E-02 22181   0.789E-01    0.702E-02
RMM:  10    -0.124154379619E+02   -0.20346E-02   -0.19235E-02 22445   0.693E-01    0.109E-01
RMM:  11    -0.124166909060E+02   -0.12529E-02   -0.12373E-02 21645   0.549E-01    0.251E-02
RMM:  12    -0.124175231898E+02   -0.83228E-03   -0.78232E-03 20890   0.455E-01    0.719E-02
RMM:  13    -0.124180431063E+02   -0.51992E-03   -0.51155E-03 19803   0.372E-01    0.304E-02
RMM:  14    -0.124183976395E+02   -0.35453E-03   -0.33672E-03 19853   0.326E-01    0.223E-02
RMM:  15    -0.124186396788E+02   -0.24204E-03   -0.23126E-03 18822   0.282E-01    0.202E-02
RMM:  16    -0.124188022777E+02   -0.16260E-03   -0.15636E-03 17749   0.239E-01    0.919E-03
RMM:  17    -0.124189187480E+02   -0.11647E-03   -0.11171E-03 16837   0.209E-01    0.190E-03
RMM:  18    -0.124190015197E+02   -0.82772E-04   -0.80466E-04 15847   0.191E-01
   1 F= -.12419002E+02 E0= -.12419002E+02  d E =0.000000E+00
