  16  16   1   0
  0.1360126E+02  0.5530335E-09  0.5530335E-09  0.7115349E-09  0.5000000E-15
  1.000000000000000E-004
  CAR 
 unknown system                          
     22.83646934    -14.40016224  301      9.14734480      1.00000000
    -14.400  0.0000E+00  0.0000E+00  0.0000E+00  0.0000E+00
    -14.276  0.0000E+00  0.0000E+00  0.0000E+00  0.0000E+00
    -14.152  0.0000E+00  0.0000E+00  0.0000E+00  0.0000E+00
    -14.028  0.0000E+00  0.0000E+00  0.0000E+00  0.0000E+00
    -13.904  0.0000E+00  0.0000E+00  0.0000E+00  0.0000E+00
    -13.780  0.0000E+00  0.0000E+00  0.0000E+00  0.0000E+00
    -13.655  0.0000E+00  0.0000E+00  0.0000E+00  0.0000E+00
    -13.531  0.2590E-15  0.2581E-15  0.3214E-16  0.3204E-16
    -13.407  0.2506E-12  0.2504E-12  0.3114E-13  0.3111E-13
    -13.283  0.1128E-09  0.1128E-09  0.1404E-10  0.1403E-10
    -13.159  0.2400E-07  0.2400E-07  0.2993E-08  0.2994E-08
    -13.035  0.2421E-05  0.2423E-05  0.3035E-06  0.3037E-06
    -12.911  0.1164E-03  0.1165E-03  0.1475E-04  0.1476E-04
    -12.787  0.2680E-02  0.2683E-02  0.3474E-03  0.3477E-03
    -12.662  0.2975E-01  0.2977E-01  0.4040E-02  0.4043E-02
    -12.538  0.1601E+00  0.1602E+00  0.2391E-01  0.2393E-01
    -12.414  0.4199E+00  0.4201E+00  0.7603E-01  0.7607E-01
    -12.290  0.5389E+00  0.5389E+00  0.1429E+00  0.1430E+00
    -12.166  0.3388E+00  0.3386E+00  0.1850E+00  0.1850E+00
    -12.042  0.1042E+00  0.1041E+00  0.1979E+00  0.1979E+00
    -11.918  0.1564E-01  0.1561E-01  0.1999E+00  0.1999E+00
    -11.794  0.1138E-02  0.1136E-02  0.2000E+00  0.2000E+00
    -11.669  0.4002E-04  0.3989E-04  0.2000E+00  0.2000E+00
    -11.545  0.6758E-06  0.6730E-06  0.2000E+00  0.2000E+00
    -11.421  0.5454E-08  0.5427E-08  0.2000E+00  0.2000E+00
    -11.297  0.2096E-10  0.2083E-10  0.2000E+00  0.2000E+00
    -11.173  0.3821E-13  0.3795E-13  0.2000E+00  0.2000E+00
    -11.049  0.2795E-17  0.2795E-17  0.2000E+00  0.2000E+00
    -10.925  0.0000E+00  0.0000E+00  0.2000E+00  0.2000E+00
    -10.801  0.0000E+00  0.0000E+00  0.2000E+00  0.2000E+00
    -10.676  0.0000E+00  0.0000E+00  0.2000E+00  0.2000E+00
    -10.552  0.0000E+00  0.0000E+00  0.2000E+00  0.2000E+00
    -10.428  0.0000E+00  0.0000E+00  0.2000E+00  0.2000E+00
    -10.304  0.0000E+00  0.0000E+00  0.2000E+00  0.2000E+00
    -10.180  0.0000E+00  0.0000E+00  0.2000E+00  0.2000E+00
    -10.056  0.0000E+00  0.0000E+00  0.2000E+00  0.2000E+00
     -9.932  0.0000E+00  0.0000E+00  0.2000E+00  0.2000E+00
     -9.808  0.0000E+00  0.0000E+00  0.2000E+00  0.2000E+00
     -9.684  0.0000E+00  0.0000E+00  0.2000E+00  0.2000E+00
     -9.559  0.0000E+00  0.0000E+00  0.2000E+00  0.2000E+00
     -9.435  0.0000E+00  0.0000E+00  0.2000E+00  0.2000E+00
     -9.311  0.0000E+00  0.0000E+00  0.2000E+00  0.2000E+00
     -9.187  0.0000E+00  0.0000E+00  0.2000E+00  0.2000E+00
     -9.063  0.0000E+00  0.0000E+00  0.2000E+00  0.2000E+00
     -8.939  0.0000E+00  0.0000E+00  0.2000E+00  0.2000E+00
     -8.815  0.0000E+00  0.0000E+00  0.2000E+00  0.2000E+00
     -8.691  0.0000E+00  0.0000E+00  0.2000E+00  0.2000E+00
     -8.566  0.0000E+00  0.0000E+00  0.2000E+00  0.2000E+00
     -8.442  0.0000E+00  0.0000E+00  0.2000E+00  0.2000E+00
     -8.318  0.0000E+00  0.0000E+00  0.2000E+00  0.2000E+00
     -8.194  0.0000E+00  0.0000E+00  0.2000E+00  0.2000E+00
     -8.070  0.0000E+00  0.0000E+00  0.2000E+00  0.2000E+00
     -7.946  0.0000E+00  0.0000E+00  0.2000E+00  0.2000E+00
     -7.822  0.0000E+00  0.0000E+00  0.2000E+00  0.2000E+00
     -7.698  0.0000E+00  0.0000E+00  0.2000E+00  0.2000E+00
     -7.573  0.0000E+00  0.0000E+00  0.2000E+00  0.2000E+00
     -7.449  0.0000E+00  0.0000E+00  0.2000E+00  0.2000E+00
     -7.325  0.0000E+00  0.0000E+00  0.2000E+00  0.2000E+00
     -7.201  0.0000E+00  0.0000E+00  0.2000E+00  0.2000E+00
     -7.077  0.0000E+00  0.0000E+00  0.2000E+00  0.2000E+00
     -6.953  0.0000E+00  0.0000E+00  0.2000E+00  0.2000E+00
     -6.829  0.0000E+00  0.0000E+00  0.2000E+00  0.2000E+00
     -6.705  0.0000E+00  0.0000E+00  0.2000E+00  0.2000E+00
     -6.580  0.0000E+00  0.0000E+00  0.2000E+00  0.2000E+00
     -6.456  0.0000E+00  0.0000E+00  0.2000E+00  0.2000E+00
     -6.332  0.0000E+00  0.0000E+00  0.2000E+00  0.2000E+00
     -6.208  0.0000E+00  0.0000E+00  0.2000E+00  0.2000E+00
     -6.084  0.0000E+00  0.0000E+00  0.2000E+00  0.2000E+00
     -5.960  0.0000E+00  0.0000E+00  0.2000E+00  0.2000E+00
     -5.836  0.0000E+00  0.0000E+00  0.2000E+00  0.2000E+00
     -5.712  0.0000E+00  0.0000E+00  0.2000E+00  0.2000E+00
     -5.587  0.0000E+00  0.0000E+00  0.2000E+00  0.2000E+00
     -5.463  0.0000E+00  0.0000E+00  0.2000E+00  0.2000E+00
     -5.339  0.0000E+00  0.0000E+00  0.2000E+00  0.2000E+00
     -5.215  0.0000E+00  0.0000E+00  0.2000E+00  0.2000E+00
     -5.091  0.0000E+00  0.0000E+00  0.2000E+00  0.2000E+00
     -4.967  0.0000E+00  0.0000E+00  0.2000E+00  0.2000E+00
     -4.843  0.0000E+00  0.0000E+00  0.2000E+00  0.2000E+00
     -4.719  0.0000E+00  0.0000E+00  0.2000E+00  0.2000E+00
     -4.595  0.0000E+00  0.0000E+00  0.2000E+00  0.2000E+00
     -4.470  0.0000E+00  0.0000E+00  0.2000E+00  0.2000E+00
     -4.346  0.0000E+00  0.0000E+00  0.2000E+00  0.2000E+00
     -4.222  0.0000E+00  0.0000E+00  0.2000E+00  0.2000E+00
     -4.098  0.0000E+00  0.0000E+00  0.2000E+00  0.2000E+00
     -3.974  0.0000E+00  0.0000E+00  0.2000E+00  0.2000E+00
     -3.850  0.0000E+00  0.0000E+00  0.2000E+00  0.2000E+00
     -3.726  0.0000E+00  0.0000E+00  0.2000E+00  0.2000E+00
     -3.602  0.0000E+00  0.0000E+00  0.2000E+00  0.2000E+00
     -3.477  0.0000E+00  0.0000E+00  0.2000E+00  0.2000E+00
     -3.353  0.0000E+00  0.0000E+00  0.2000E+00  0.2000E+00
     -3.229  0.0000E+00  0.0000E+00  0.2000E+00  0.2000E+00
     -3.105  0.0000E+00  0.0000E+00  0.2000E+00  0.2000E+00
     -2.981  0.0000E+00  0.0000E+00  0.2000E+00  0.2000E+00
     -2.857  0.0000E+00  0.0000E+00  0.2000E+00  0.2000E+00
     -2.733  0.0000E+00  0.0000E+00  0.2000E+00  0.2000E+00
     -2.609  0.1898E-17  0.1945E-17  0.2000E+00  0.2000E+00
     -2.484  0.1291E-14  0.1316E-14  0.2000E+00  0.2000E+00
     -2.360  0.4186E-12  0.4260E-12  0.2000E+00  0.2000E+00
     -2.236  0.6628E-10  0.6729E-10  0.2000E+00  0.2000E+00
     -2.112  0.5218E-08  0.5287E-08  0.2000E+00  0.2000E+00
     -1.988  0.2088E-06  0.2111E-06  0.2000E+00  0.2000E+00
     -1.864  0.4351E-05  0.4391E-05  0.2000E+00  0.2000E+00
     -1.740  0.4838E-04  0.4872E-04  0.2000E+00  0.2000E+00
     -1.616  0.2951E-03  0.2966E-03  0.2000E+00  0.2000E+00
     -1.491  0.1033E-02  0.1037E-02  0.2002E+00  0.2002E+00
     -1.367  0.2286E-02  0.2291E-02  0.2005E+00  0.2005E+00
     -1.243  0.3735E-02  0.3741E-02  0.2009E+00  0.2009E+00
     -1.119  0.5046E-02  0.5052E-02  0.2015E+00  0.2015E+00
     -0.995  0.6040E-02  0.6047E-02  0.2023E+00  0.2023E+00
     -0.871  0.7244E-02  0.7253E-02  0.2032E+00  0.2032E+00
     -0.747  0.8554E-02  0.8563E-02  0.2043E+00  0.2043E+00
     -0.623  0.9546E-02  0.9556E-02  0.2054E+00  0.2054E+00
     -0.498  0.1077E-01  0.1078E-01  0.2068E+00  0.2068E+00
     -0.374  0.1279E-01  0.1282E-01  0.2084E+00  0.2084E+00
     -0.250  0.1500E-01  0.1502E-01  0.2102E+00  0.2102E+00
     -0.126  0.1732E-01  0.1735E-01  0.2124E+00  0.2124E+00
     -0.002  0.2171E-01  0.2178E-01  0.2151E+00  0.2151E+00
      0.122  0.2837E-01  0.2849E-01  0.2186E+00  0.2186E+00
      0.246  0.3626E-01  0.3644E-01  0.2231E+00  0.2232E+00
      0.370  0.4292E-01  0.4311E-01  0.2284E+00  0.2285E+00
      0.494  0.4206E-01  0.4210E-01  0.2336E+00  0.2337E+00
      0.619  0.3071E-01  0.3050E-01  0.2375E+00  0.2375E+00
      0.743  0.1515E-01  0.1484E-01  0.2393E+00  0.2394E+00
      0.867  0.4542E-02  0.4370E-02  0.2399E+00  0.2399E+00
      0.991  0.7577E-03  0.7139E-03  0.2400E+00  0.2400E+00
      1.115  0.6631E-04  0.6108E-04  0.2400E+00  0.2400E+00
      1.239  0.2940E-05  0.2645E-05  0.2400E+00  0.2400E+00
      1.363  0.6466E-07  0.5679E-07  0.2400E+00  0.2400E+00
      1.487  0.6954E-09  0.5958E-09  0.2400E+00  0.2400E+00
      1.612  0.3620E-11  0.3024E-11  0.2400E+00  0.2400E+00
      1.736  0.1465E-12  0.1406E-12  0.2400E+00  0.2400E+00
      1.860  0.2541E-10  0.2469E-10  0.2400E+00  0.2400E+00
      1.984  0.2329E-08  0.2268E-08  0.2400E+00  0.2400E+00
      2.108  0.1080E-06  0.1055E-06  0.2400E+00  0.2400E+00
      2.232  0.2594E-05  0.2539E-05  0.2400E+00  0.2400E+00
      2.356  0.3305E-04  0.3244E-04  0.2400E+00  0.2400E+00
      2.480  0.2299E-03  0.2264E-03  0.2400E+00  0.2400E+00
      2.605  0.9178E-03  0.9066E-03  0.2401E+00  0.2401E+00
      2.729  0.2355E-02  0.2335E-02  0.2404E+00  0.2404E+00
      2.853  0.4908E-02  0.4896E-02  0.2410E+00  0.2410E+00
      2.977  0.1060E-01  0.1065E-01  0.2424E+00  0.2424E+00
      3.101  0.2272E-01  0.2284E-01  0.2452E+00  0.2452E+00
      3.225  0.3973E-01  0.3987E-01  0.2501E+00  0.2501E+00
      3.349  0.5283E-01  0.5287E-01  0.2567E+00  0.2567E+00
      3.473  0.5518E-01  0.5516E-01  0.2635E+00  0.2636E+00
      3.598  0.4936E-01  0.4937E-01  0.2696E+00  0.2697E+00
      3.722  0.3980E-01  0.3978E-01  0.2746E+00  0.2746E+00
      3.846  0.2970E-01  0.2965E-01  0.2783E+00  0.2783E+00
      3.970  0.2633E-01  0.2634E-01  0.2815E+00  0.2816E+00
      4.094  0.3335E-01  0.3344E-01  0.2857E+00  0.2857E+00
      4.218  0.4906E-01  0.4921E-01  0.2918E+00  0.2918E+00
      4.342  0.6712E-01  0.6744E-01  0.3001E+00  0.3002E+00
      4.466  0.8175E-01  0.8236E-01  0.3102E+00  0.3104E+00
      4.591  0.9064E-01  0.9149E-01  0.3215E+00  0.3218E+00
      4.715  0.9578E-01  0.9660E-01  0.3334E+00  0.3338E+00
      4.839  0.1008E+00  0.1012E+00  0.3459E+00  0.3463E+00
      4.963  0.1025E+00  0.1022E+00  0.3586E+00  0.3590E+00
      5.087  0.9926E-01  0.9857E-01  0.3709E+00  0.3712E+00
      5.211  0.9797E-01  0.9729E-01  0.3831E+00  0.3833E+00
      5.335  0.1041E+00  0.1037E+00  0.3960E+00  0.3962E+00
      5.459  0.1116E+00  0.1116E+00  0.4099E+00  0.4100E+00
      5.583  0.1151E+00  0.1156E+00  0.4242E+00  0.4244E+00
      5.708  0.1169E+00  0.1175E+00  0.4387E+00  0.4390E+00
      5.832  0.1130E+00  0.1130E+00  0.4527E+00  0.4530E+00
      5.956  0.1031E+00  0.1027E+00  0.4655E+00  0.4658E+00
      6.080  0.9224E-01  0.9201E-01  0.4769E+00  0.4772E+00
      6.204  0.8363E-01  0.8359E-01  0.4873E+00  0.4875E+00
      6.328  0.8143E-01  0.8148E-01  0.4974E+00  0.4977E+00
      6.452  0.8441E-01  0.8432E-01  0.5079E+00  0.5081E+00
      6.576  0.8652E-01  0.8638E-01  0.5186E+00  0.5188E+00
      6.701  0.9042E-01  0.9042E-01  0.5299E+00  0.5301E+00
      6.825  0.1012E+00  0.1012E+00  0.5424E+00  0.5426E+00
      6.949  0.1172E+00  0.1173E+00  0.5570E+00  0.5572E+00
      7.073  0.1337E+00  0.1340E+00  0.5736E+00  0.5738E+00
      7.197  0.1474E+00  0.1479E+00  0.5919E+00  0.5922E+00
      7.321  0.1561E+00  0.1562E+00  0.6112E+00  0.6116E+00
      7.445  0.1526E+00  0.1521E+00  0.6302E+00  0.6304E+00
      7.569  0.1344E+00  0.1337E+00  0.6469E+00  0.6470E+00
      7.694  0.1087E+00  0.1084E+00  0.6603E+00  0.6605E+00
      7.818  0.8425E-01  0.8412E-01  0.6708E+00  0.6709E+00
      7.942  0.6664E-01  0.6644E-01  0.6791E+00  0.6792E+00
      8.066  0.5619E-01  0.5602E-01  0.6860E+00  0.6861E+00
      8.190  0.5180E-01  0.5164E-01  0.6925E+00  0.6925E+00
      8.314  0.4892E-01  0.4854E-01  0.6985E+00  0.6986E+00
      8.438  0.4331E-01  0.4288E-01  0.7039E+00  0.7039E+00
      8.562  0.3710E-01  0.3711E-01  0.7085E+00  0.7085E+00
      8.687  0.3330E-01  0.3410E-01  0.7127E+00  0.7127E+00
      8.811  0.3356E-01  0.3538E-01  0.7168E+00  0.7171E+00
      8.935  0.4420E-01  0.4705E-01  0.7223E+00  0.7230E+00
      9.059  0.7053E-01  0.7137E-01  0.7311E+00  0.7318E+00
      9.183  0.1043E+00  0.9667E-01  0.7440E+00  0.7438E+00
      9.307  0.1279E+00  0.1140E+00  0.7599E+00  0.7580E+00
      9.431  0.1306E+00  0.1241E+00  0.7761E+00  0.7734E+00
      9.555  0.1174E+00  0.1230E+00  0.7907E+00  0.7887E+00
      9.680  0.1077E+00  0.1161E+00  0.8040E+00  0.8031E+00
      9.804  0.1086E+00  0.1127E+00  0.8175E+00  0.8170E+00
      9.928  0.1110E+00  0.1117E+00  0.8313E+00  0.8309E+00
     10.052  0.1102E+00  0.1094E+00  0.8450E+00  0.8445E+00
     10.176  0.1022E+00  0.1012E+00  0.8577E+00  0.8570E+00
     10.300  0.8694E-01  0.8692E-01  0.8685E+00  0.8678E+00
     10.424  0.7131E-01  0.7231E-01  0.8773E+00  0.8768E+00
     10.548  0.6001E-01  0.6144E-01  0.8848E+00  0.8844E+00
     10.673  0.5260E-01  0.5406E-01  0.8913E+00  0.8911E+00
     10.797  0.4650E-01  0.4739E-01  0.8971E+00  0.8970E+00
     10.921  0.4141E-01  0.4158E-01  0.9022E+00  0.9022E+00
     11.045  0.3848E-01  0.3853E-01  0.9070E+00  0.9070E+00
     11.169  0.3759E-01  0.3779E-01  0.9116E+00  0.9117E+00
     11.293  0.3706E-01  0.3723E-01  0.9162E+00  0.9163E+00
     11.417  0.3544E-01  0.3557E-01  0.9206E+00  0.9207E+00
     11.541  0.3471E-01  0.3488E-01  0.9249E+00  0.9250E+00
     11.665  0.3331E-01  0.3351E-01  0.9291E+00  0.9292E+00
     11.790  0.2949E-01  0.2956E-01  0.9327E+00  0.9328E+00
     11.914  0.2621E-01  0.2610E-01  0.9360E+00  0.9361E+00
     12.038  0.2398E-01  0.2386E-01  0.9390E+00  0.9390E+00
     12.162  0.2204E-01  0.2197E-01  0.9417E+00  0.9418E+00
     12.286  0.1928E-01  0.1919E-01  0.9441E+00  0.9442E+00
     12.410  0.1515E-01  0.1508E-01  0.9460E+00  0.9460E+00
     12.534  0.1387E-01  0.1389E-01  0.9477E+00  0.9478E+00
     12.658  0.1784E-01  0.1788E-01  0.9499E+00  0.9500E+00
     12.783  0.2397E-01  0.2398E-01  0.9529E+00  0.9529E+00
     12.907  0.2856E-01  0.2856E-01  0.9564E+00  0.9565E+00
     13.031  0.2931E-01  0.2923E-01  0.9601E+00  0.9601E+00
     13.155  0.2885E-01  0.2874E-01  0.9637E+00  0.9637E+00
     13.279  0.2894E-01  0.2892E-01  0.9672E+00  0.9673E+00
     13.403  0.2789E-01  0.2794E-01  0.9707E+00  0.9707E+00
     13.527  0.2718E-01  0.2723E-01  0.9741E+00  0.9741E+00
     13.651  0.2654E-01  0.2656E-01  0.9774E+00  0.9774E+00
     13.776  0.2388E-01  0.2383E-01  0.9803E+00  0.9804E+00
     13.900  0.1995E-01  0.1981E-01  0.9828E+00  0.9828E+00
     14.024  0.1584E-01  0.1568E-01  0.9848E+00  0.9848E+00
     14.148  0.1311E-01  0.1307E-01  0.9864E+00  0.9864E+00
     14.272  0.1304E-01  0.1312E-01  0.9880E+00  0.9880E+00
     14.396  0.1452E-01  0.1459E-01  0.9898E+00  0.9898E+00
     14.520  0.1541E-01  0.1538E-01  0.9917E+00  0.9918E+00
     14.644  0.1545E-01  0.1536E-01  0.9937E+00  0.9937E+00
     14.769  0.1841E-01  0.1831E-01  0.9959E+00  0.9959E+00
     14.893  0.2560E-01  0.2552E-01  0.9991E+00  0.9991E+00
     15.017  0.3262E-01  0.3256E-01  0.1003E+01  0.1003E+01
     15.141  0.3505E-01  0.3506E-01  0.1008E+01  0.1007E+01
     15.265  0.3287E-01  0.3294E-01  0.1012E+01  0.1012E+01
     15.389  0.3057E-01  0.3059E-01  0.1015E+01  0.1015E+01
     15.513  0.3157E-01  0.3154E-01  0.1019E+01  0.1019E+01
     15.637  0.3326E-01  0.3326E-01  0.1023E+01  0.1023E+01
     15.762  0.3371E-01  0.3373E-01  0.1028E+01  0.1028E+01
     15.886  0.3142E-01  0.3147E-01  0.1032E+01  0.1032E+01
     16.010  0.2679E-01  0.2683E-01  0.1035E+01  0.1035E+01
     16.134  0.2546E-01  0.2549E-01  0.1038E+01  0.1038E+01
     16.258  0.2627E-01  0.2630E-01  0.1041E+01  0.1041E+01
     16.382  0.2597E-01  0.2595E-01  0.1045E+01  0.1044E+01
     16.506  0.2810E-01  0.2807E-01  0.1048E+01  0.1048E+01
     16.630  0.3364E-01  0.3363E-01  0.1052E+01  0.1052E+01
     16.754  0.3860E-01  0.3859E-01  0.1057E+01  0.1057E+01
     16.879  0.3933E-01  0.3932E-01  0.1062E+01  0.1062E+01
     17.003  0.3541E-01  0.3542E-01  0.1066E+01  0.1066E+01
     17.127  0.3025E-01  0.3026E-01  0.1070E+01  0.1070E+01
     17.251  0.2688E-01  0.2689E-01  0.1073E+01  0.1073E+01
     17.375  0.2607E-01  0.2604E-01  0.1077E+01  0.1077E+01
     17.499  0.2777E-01  0.2766E-01  0.1080E+01  0.1080E+01
     17.623  0.3169E-01  0.3158E-01  0.1084E+01  0.1084E+01
     17.747  0.3661E-01  0.3658E-01  0.1088E+01  0.1088E+01
     17.872  0.3867E-01  0.3866E-01  0.1093E+01  0.1093E+01
     17.996  0.3663E-01  0.3666E-01  0.1098E+01  0.1098E+01
     18.120  0.3408E-01  0.3405E-01  0.1102E+01  0.1102E+01
     18.244  0.3415E-01  0.3401E-01  0.1106E+01  0.1106E+01
     18.368  0.3457E-01  0.3446E-01  0.1111E+01  0.1111E+01
     18.492  0.3360E-01  0.3361E-01  0.1115E+01  0.1115E+01
     18.616  0.3498E-01  0.3500E-01  0.1119E+01  0.1119E+01
     18.740  0.3939E-01  0.3937E-01  0.1124E+01  0.1124E+01
     18.865  0.4442E-01  0.4440E-01  0.1130E+01  0.1129E+01
     18.989  0.4724E-01  0.4731E-01  0.1135E+01  0.1135E+01
     19.113  0.4509E-01  0.4515E-01  0.1141E+01  0.1141E+01
     19.237  0.4054E-01  0.4049E-01  0.1146E+01  0.1146E+01
     19.361  0.3776E-01  0.3770E-01  0.1151E+01  0.1151E+01
     19.485  0.3775E-01  0.3775E-01  0.1155E+01  0.1155E+01
     19.609  0.3731E-01  0.3738E-01  0.1160E+01  0.1160E+01
     19.733  0.3368E-01  0.3381E-01  0.1164E+01  0.1164E+01
     19.858  0.2839E-01  0.2862E-01  0.1168E+01  0.1168E+01
     19.982  0.2352E-01  0.2368E-01  0.1171E+01  0.1171E+01
     20.106  0.2050E-01  0.2052E-01  0.1173E+01  0.1173E+01
     20.230  0.1902E-01  0.1899E-01  0.1176E+01  0.1176E+01
     20.354  0.1581E-01  0.1578E-01  0.1177E+01  0.1177E+01
     20.478  0.1014E-01  0.1013E-01  0.1179E+01  0.1179E+01
     20.602  0.5290E-02  0.5285E-02  0.1179E+01  0.1179E+01
     20.726  0.2528E-02  0.2516E-02  0.1180E+01  0.1180E+01
     20.851  0.1289E-02  0.1285E-02  0.1180E+01  0.1180E+01
     20.975  0.6789E-03  0.6853E-03  0.1180E+01  0.1180E+01
     21.099  0.2486E-03  0.2549E-03  0.1180E+01  0.1180E+01
     21.223  0.4936E-04  0.5139E-04  0.1180E+01  0.1180E+01
     21.347  0.4907E-05  0.5188E-05  0.1180E+01  0.1180E+01
     21.471  0.2376E-06  0.2551E-06  0.1180E+01  0.1180E+01
     21.595  0.5524E-08  0.6024E-08  0.1180E+01  0.1180E+01
     21.719  0.6112E-10  0.6772E-10  0.1180E+01  0.1180E+01
     21.843  0.3198E-12  0.3600E-12  0.1180E+01  0.1180E+01
     21.968  0.7878E-15  0.9008E-15  0.1180E+01  0.1180E+01
     22.092  0.9317E-18  0.1118E-17  0.1180E+01  0.1180E+01
     22.216  0.0000E+00  0.0000E+00  0.1180E+01  0.1180E+01
     22.340  0.0000E+00  0.0000E+00  0.1180E+01  0.1180E+01
     22.464  0.0000E+00  0.0000E+00  0.1180E+01  0.1180E+01
     22.588  0.0000E+00  0.0000E+00  0.1180E+01  0.1180E+01
     22.712  0.0000E+00  0.0000E+00  0.1180E+01  0.1180E+01
     22.836  0.0000E+00  0.0000E+00  0.1180E+01  0.1180E+01
     22.83646934    -14.40016224  301      9.14734480      1.00000000
    -14.400  0.0000E+00  0.0000E+00  0.0000E+00  0.0000E+00  0.0000E+00  0.0000E+00  0.0000E+00  0.0000E+00  0.0000E+00  0.0000E+00  0.0000E+00  0.0000E+00  0.0000E+00  0.0000E+00  0.0000E+00  0.0000E+00  0.0000E+00  0.0000E+00
    -14.276  0.0000E+00  0.0000E+00  0.0000E+00  0.0000E+00  0.0000E+00  0.0000E+00  0.0000E+00  0.0000E+00  0.0000E+00  0.0000E+00  0.0000E+00  0.0000E+00  0.0000E+00  0.0000E+00  0.0000E+00  0.0000E+00  0.0000E+00  0.0000E+00
    -14.152  0.0000E+00  0.0000E+00  0.0000E+00  0.0000E+00  0.0000E+00  0.0000E+00  0.0000E+00  0.0000E+00  0.0000E+00  0.0000E+00  0.0000E+00  0.0000E+00  0.0000E+00  0.0000E+00  0.0000E+00  0.0000E+00  0.0000E+00  0.0000E+00
    -14.028  0.0000E+00  0.0000E+00  0.0000E+00  0.0000E+00  0.0000E+00  0.0000E+00  0.0000E+00  0.0000E+00  0.0000E+00  0.0000E+00  0.0000E+00  0.0000E+00  0.0000E+00  0.0000E+00  0.0000E+00  0.0000E+00  0.0000E+00  0.0000E+00
    -13.904  0.0000E+00  0.0000E+00  0.0000E+00  0.0000E+00  0.0000E+00  0.0000E+00  0.0000E+00  0.0000E+00  0.0000E+00  0.0000E+00  0.0000E+00  0.0000E+00  0.0000E+00  0.0000E+00  0.0000E+00  0.0000E+00  0.0000E+00  0.0000E+00
    -13.780  0.0000E+00  0.0000E+00  0.0000E+00  0.0000E+00  0.0000E+00  0.0000E+00  0.0000E+00  0.0000E+00  0.0000E+00  0.0000E+00  0.0000E+00  0.0000E+00  0.0000E+00  0.0000E+00  0.0000E+00  0.0000E+00  0.0000E+00  0.0000E+00
    -13.655  0.0000E+00  0.0000E+00  0.0000E+00  0.0000E+00  0.0000E+00  0.0000E+00  0.0000E+00  0.0000E+00  0.0000E+00  0.0000E+00  0.0000E+00  0.0000E+00  0.0000E+00  0.0000E+00  0.0000E+00  0.0000E+00  0.0000E+00  0.0000E+00
    -13.531  0.2280E-17  0.2250E-17  0.5977E-18  0.5923E-18  0.8550E-18  0.8424E-18  0.6536E-18  0.6472E-18  0.6129E-18  0.6039E-18  0.1349E-17  0.1335E-17  0.2858E-18  0.2853E-18  0.1242E-17  0.1230E-17  0.3252E-18  0.3250E-18
    -13.407  0.2084E-14  0.2066E-14  0.5704E-15  0.5666E-15  0.8218E-15  0.8148E-15  0.6180E-15  0.6136E-15  0.5934E-15  0.5890E-15  0.1266E-14  0.1257E-14  0.2793E-15  0.2792E-15  0.1182E-14  0.1174E-14  0.3048E-15  0.3049E-15
    -13.283  0.8920E-12  0.8852E-12  0.2549E-12  0.2535E-12  0.3692E-12  0.3665E-12  0.2729E-12  0.2712E-12  0.2666E-12  0.2650E-12  0.5560E-12  0.5527E-12  0.1292E-12  0.1292E-12  0.5240E-12  0.5209E-12  0.1330E-12  0.1332E-12
    -13.159  0.1798E-09  0.1787E-09  0.5368E-10  0.5343E-10  0.7822E-10  0.7773E-10  0.5681E-10  0.5652E-10  0.5656E-10  0.5628E-10  0.1151E-09  0.1145E-09  0.2824E-10  0.2825E-10  0.1094E-09  0.1089E-09  0.2738E-10  0.2743E-10
    -13.035  0.1714E-07  0.1705E-07  0.5346E-08  0.5325E-08  0.7844E-08  0.7803E-08  0.5598E-08  0.5575E-08  0.5689E-08  0.5666E-08  0.1127E-07  0.1123E-07  0.2931E-08  0.2932E-08  0.1080E-07  0.1076E-07  0.2668E-08  0.2674E-08
    -12.911  0.7765E-06  0.7731E-06  0.2529E-06  0.2522E-06  0.3741E-06  0.3725E-06  0.2623E-06  0.2614E-06  0.2725E-06  0.2717E-06  0.5247E-06  0.5231E-06  0.1449E-06  0.1450E-06  0.5068E-06  0.5052E-06  0.1235E-06  0.1238E-06
    -12.787  0.1680E-04  0.1674E-04  0.5716E-05  0.5703E-05  0.8526E-05  0.8499E-05  0.5875E-05  0.5862E-05  0.6252E-05  0.6239E-05  0.1167E-04  0.1164E-04  0.3431E-05  0.3434E-05  0.1135E-04  0.1132E-04  0.2732E-05  0.2739E-05
    -12.662  0.1747E-03  0.1743E-03  0.6207E-04  0.6198E-04  0.9345E-04  0.9324E-04  0.6331E-04  0.6322E-04  0.6912E-04  0.6904E-04  0.1248E-03  0.1246E-03  0.3911E-04  0.3914E-04  0.1222E-03  0.1220E-03  0.2902E-04  0.2909E-04
    -12.538  0.8780E-03  0.8768E-03  0.3259E-03  0.3256E-03  0.4954E-03  0.4947E-03  0.3302E-03  0.3300E-03  0.3706E-03  0.3703E-03  0.6460E-03  0.6455E-03  0.2158E-03  0.2159E-03  0.6357E-03  0.6352E-03  0.1489E-03  0.1492E-03
    -12.414  0.2145E-02  0.2144E-02  0.8317E-03  0.8316E-03  0.1277E-02  0.1276E-02  0.8382E-03  0.8380E-03  0.9684E-03  0.9683E-03  0.1626E-02  0.1626E-02  0.5791E-03  0.5794E-03  0.1608E-02  0.1608E-02  0.3708E-03  0.3714E-03
    -12.290  0.2558E-02  0.2559E-02  0.1036E-02  0.1036E-02  0.1606E-02  0.1606E-02  0.1039E-02  0.1040E-02  0.1238E-02  0.1239E-02  0.2000E-02  0.2001E-02  0.7584E-03  0.7585E-03  0.1985E-02  0.1986E-02  0.4494E-03  0.4498E-03
    -12.166  0.1490E-02  0.1492E-02  0.6303E-03  0.6306E-03  0.9867E-03  0.9876E-03  0.6307E-03  0.6311E-03  0.7760E-03  0.7764E-03  0.1203E-02  0.1204E-02  0.4850E-03  0.4848E-03  0.1198E-02  0.1199E-02  0.2653E-03  0.2653E-03
    -12.042  0.4239E-03  0.4247E-03  0.1872E-03  0.1874E-03  0.2958E-03  0.2963E-03  0.1871E-03  0.1872E-03  0.2380E-03  0.2382E-03  0.3537E-03  0.3543E-03  0.1512E-03  0.1511E-03  0.3532E-03  0.3537E-03  0.7617E-04  0.7608E-04
    -11.918  0.5873E-04  0.5886E-04  0.2708E-04  0.2711E-04  0.4314E-04  0.4323E-04  0.2705E-04  0.2707E-04  0.3562E-04  0.3564E-04  0.5072E-04  0.5082E-04  0.2290E-04  0.2287E-04  0.5072E-04  0.5082E-04  0.1059E-04  0.1056E-04
    -11.794  0.3947E-05  0.3957E-05  0.1898E-05  0.1900E-05  0.3045E-05  0.3054E-05  0.1898E-05  0.1900E-05  0.2589E-05  0.2589E-05  0.3533E-05  0.3540E-05  0.1675E-05  0.1672E-05  0.3534E-05  0.3542E-05  0.7092E-06  0.7062E-06
    -11.669  0.1281E-06  0.1285E-06  0.6421E-07  0.6426E-07  0.1036E-06  0.1039E-06  0.6435E-07  0.6438E-07  0.9088E-07  0.9083E-07  0.1190E-06  0.1193E-06  0.5888E-07  0.5872E-07  0.1190E-06  0.1193E-06  0.2275E-07  0.2262E-07
    -11.545  0.2003E-08  0.2009E-08  0.1043E-08  0.1044E-08  0.1688E-08  0.1694E-08  0.1049E-08  0.1049E-08  0.1533E-08  0.1531E-08  0.1930E-08  0.1934E-08  0.9887E-09  0.9853E-09  0.1928E-08  0.1933E-08  0.3478E-09  0.3450E-09
    -11.421  0.1501E-10  0.1506E-10  0.8113E-11  0.8111E-11  0.1314E-10  0.1319E-10  0.8192E-11  0.8187E-11  0.1236E-10  0.1234E-10  0.1501E-10  0.1505E-10  0.7895E-11  0.7861E-11  0.1498E-10  0.1501E-10  0.2521E-11  0.2496E-11
    -11.297  0.5385E-13  0.5399E-13  0.3009E-13  0.3006E-13  0.4861E-13  0.4881E-13  0.3052E-13  0.3048E-13  0.4747E-13  0.4732E-13  0.5585E-13  0.5599E-13  0.2985E-13  0.2970E-13  0.5559E-13  0.5573E-13  0.8634E-14  0.8528E-14
    -11.173  0.9224E-16  0.9241E-16  0.5309E-16  0.5301E-16  0.8535E-16  0.8572E-16  0.5414E-16  0.5402E-16  0.8652E-16  0.8618E-16  0.9912E-16  0.9934E-16  0.5331E-16  0.5300E-16  0.9841E-16  0.9867E-16  0.1393E-16  0.1373E-16
    -11.049  0.2461E-20  0.2466E-20  0.5150E-20  0.5151E-20  0.1796E-20  0.1812E-20  0.5206E-20  0.5207E-20  0.1557E-20  0.1548E-20  0.1765E-19  0.1771E-19  0.4960E-21  0.5038E-21  0.1741E-19  0.1747E-19  0.1179E-22  0.1180E-22
    -10.925  0.0000E+00  0.0000E+00  0.0000E+00  0.0000E+00  0.0000E+00  0.0000E+00  0.0000E+00  0.0000E+00  0.0000E+00  0.0000E+00  0.0000E+00  0.0000E+00  0.0000E+00  0.0000E+00  0.0000E+00  0.0000E+00  0.0000E+00  0.0000E+00
    -10.801  0.0000E+00  0.0000E+00  0.0000E+00  0.0000E+00  0.0000E+00  0.0000E+00  0.0000E+00  0.0000E+00  0.0000E+00  0.0000E+00  0.0000E+00  0.0000E+00  0.0000E+00  0.0000E+00  0.0000E+00  0.0000E+00  0.0000E+00  0.0000E+00
    -10.676  0.0000E+00  0.0000E+00  0.0000E+00  0.0000E+00  0.0000E+00  0.0000E+00  0.0000E+00  0.0000E+00  0.0000E+00  0.0000E+00  0.0000E+00  0.0000E+00  0.0000E+00  0.0000E+00  0.0000E+00  0.0000E+00  0.0000E+00  0.0000E+00
    -10.552  0.0000E+00  0.0000E+00  0.0000E+00  0.0000E+00  0.0000E+00  0.0000E+00  0.0000E+00  0.0000E+00  0.0000E+00  0.0000E+00  0.0000E+00  0.0000E+00  0.0000E+00  0.0000E+00  0.0000E+00  0.0000E+00  0.0000E+00  0.0000E+00
    -10.428  0.0000E+00  0.0000E+00  0.0000E+00  0.0000E+00  0.0000E+00  0.0000E+00  0.0000E+00  0.0000E+00  0.0000E+00  0.0000E+00  0.0000E+00  0.0000E+00  0.0000E+00  0.0000E+00  0.0000E+00  0.0000E+00  0.0000E+00  0.0000E+00
    -10.304  0.0000E+00  0.0000E+00  0.0000E+00  0.0000E+00  0.0000E+00  0.0000E+00  0.0000E+00  0.0000E+00  0.0000E+00  0.0000E+00  0.0000E+00  0.0000E+00  0.0000E+00  0.0000E+00  0.0000E+00  0.0000E+00  0.0000E+00  0.0000E+00
    -10.180  0.0000E+00  0.0000E+00  0.0000E+00  0.0000E+00  0.0000E+00  0.0000E+00  0.0000E+00  0.0000E+00  0.0000E+00  0.0000E+00  0.0000E+00  0.0000E+00  0.0000E+00  0.0000E+00  0.0000E+00  0.0000E+00  0.0000E+00  0.0000E+00
    -10.056  0.0000E+00  0.0000E+00  0.0000E+00  0.0000E+00  0.0000E+00  0.0000E+00  0.0000E+00  0.0000E+00  0.0000E+00  0.0000E+00  0.0000E+00  0.0000E+00  0.0000E+00  0.0000E+00  0.0000E+00  0.0000E+00  0.0000E+00  0.0000E+00
     -9.932  0.0000E+00  0.0000E+00  0.0000E+00  0.0000E+00  0.0000E+00  0.0000E+00  0.0000E+00  0.0000E+00  0.0000E+00  0.0000E+00  0.0000E+00  0.0000E+00  0.0000E+00  0.0000E+00  0.0000E+00  0.0000E+00  0.0000E+00  0.0000E+00
     -9.808  0.0000E+00  0.0000E+00  0.0000E+00  0.0000E+00  0.0000E+00  0.0000E+00  0.0000E+00  0.0000E+00  0.0000E+00  0.0000E+00  0.0000E+00  0.0000E+00  0.0000E+00  0.0000E+00  0.0000E+00  0.0000E+00  0.0000E+00  0.0000E+00
     -9.684  0.0000E+00  0.0000E+00  0.0000E+00  0.0000E+00  0.0000E+00  0.0000E+00  0.0000E+00  0.0000E+00  0.0000E+00  0.0000E+00  0.0000E+00  0.0000E+00  0.0000E+00  0.0000E+00  0.0000E+00  0.0000E+00  0.0000E+00  0.0000E+00
     -9.559  0.0000E+00  0.0000E+00  0.0000E+00  0.0000E+00  0.0000E+00  0.0000E+00  0.0000E+00  0.0000E+00  0.0000E+00  0.0000E+00  0.0000E+00  0.0000E+00  0.0000E+00  0.0000E+00  0.0000E+00  0.0000E+00  0.0000E+00  0.0000E+00
     -9.435  0.0000E+00  0.0000E+00  0.0000E+00  0.0000E+00  0.0000E+00  0.0000E+00  0.0000E+00  0.0000E+00  0.0000E+00  0.0000E+00  0.0000E+00  0.0000E+00  0.0000E+00  0.0000E+00  0.0000E+00  0.0000E+00  0.0000E+00  0.0000E+00
     -9.311  0.0000E+00  0.0000E+00  0.0000E+00  0.0000E+00  0.0000E+00  0.0000E+00  0.0000E+00  0.0000E+00  0.0000E+00  0.0000E+00  0.0000E+00  0.0000E+00  0.0000E+00  0.0000E+00  0.0000E+00  0.0000E+00  0.0000E+00  0.0000E+00
     -9.187  0.0000E+00  0.0000E+00  0.0000E+00  0.0000E+00  0.0000E+00  0.0000E+00  0.0000E+00  0.0000E+00  0.0000E+00  0.0000E+00  0.0000E+00  0.0000E+00  0.0000E+00  0.0000E+00  0.0000E+00  0.0000E+00  0.0000E+00  0.0000E+00
     -9.063  0.0000E+00  0.0000E+00  0.0000E+00  0.0000E+00  0.0000E+00  0.0000E+00  0.0000E+00  0.0000E+00  0.0000E+00  0.0000E+00  0.0000E+00  0.0000E+00  0.0000E+00  0.0000E+00  0.0000E+00  0.0000E+00  0.0000E+00  0.0000E+00
     -8.939  0.0000E+00  0.0000E+00  0.0000E+00  0.0000E+00  0.0000E+00  0.0000E+00  0.0000E+00  0.0000E+00  0.0000E+00  0.0000E+00  0.0000E+00  0.0000E+00  0.0000E+00  0.0000E+00  0.0000E+00  0.0000E+00  0.0000E+00  0.0000E+00
     -8.815  0.0000E+00  0.0000E+00  0.0000E+00  0.0000E+00  0.0000E+00  0.0000E+00  0.0000E+00  0.0000E+00  0.0000E+00  0.0000E+00  0.0000E+00  0.0000E+00  0.0000E+00  0.0000E+00  0.0000E+00  0.0000E+00  0.0000E+00  0.0000E+00
     -8.691  0.0000E+00  0.0000E+00  0.0000E+00  0.0000E+00  0.0000E+00  0.0000E+00  0.0000E+00  0.0000E+00  0.0000E+00  0.0000E+00  0.0000E+00  0.0000E+00  0.0000E+00  0.0000E+00  0.0000E+00  0.0000E+00  0.0000E+00  0.0000E+00
     -8.566  0.0000E+00  0.0000E+00  0.0000E+00  0.0000E+00  0.0000E+00  0.0000E+00  0.0000E+00  0.0000E+00  0.0000E+00  0.0000E+00  0.0000E+00  0.0000E+00  0.0000E+00  0.0000E+00  0.0000E+00  0.0000E+00  0.0000E+00  0.0000E+00
     -8.442  0.0000E+00  0.0000E+00  0.0000E+00  0.0000E+00  0.0000E+00  0.0000E+00  0.0000E+00  0.0000E+00  0.0000E+00  0.0000E+00  0.0000E+00  0.0000E+00  0.0000E+00  0.0000E+00  0.0000E+00  0.0000E+00  0.0000E+00  0.0000E+00
     -8.318  0.0000E+00  0.0000E+00  0.0000E+00  0.0000E+00  0.0000E+00  0.0000E+00  0.0000E+00  0.0000E+00  0.0000E+00  0.0000E+00  0.0000E+00  0.0000E+00  0.0000E+00  0.0000E+00  0.0000E+00  0.0000E+00  0.0000E+00  0.0000E+00
     -8.194  0.0000E+00  0.0000E+00  0.0000E+00  0.0000E+00  0.0000E+00  0.0000E+00  0.0000E+00  0.0000E+00  0.0000E+00  0.0000E+00  0.0000E+00  0.0000E+00  0.0000E+00  0.0000E+00  0.0000E+00  0.0000E+00  0.0000E+00  0.0000E+00