 running on    8 total cores
 distrk:  each k-point on    8 cores,    1 groups
 distr:  one band on    4 cores,    2 groups
 using from now: INCAR     
 vasp.5.3.2 13Sep12 (build Mar 19 2013 12:21:59) complex                        
  
 POSCAR found type information on POSCAR  Rh Sn V 
 POSCAR found :  3 types and      16 ions
 LDA part: xc-table for Pade appr. of Perdew
 POSCAR, INCAR and KPOINTS ok, starting setup
 WARNING: small aliasing (wrap around) errors must be expected
 FFT: planning ...
 WAVECAR not read
 WARNING: dimensions on CHGCAR file are different
 WARNING: random wavefunctions but no delay for mixing, default for NELMDL
 entering main loop
       N       E                     dE             d eps       ncg     rms          rms(c)
DAV:   1     0.125877040978E+04    0.12588E+04   -0.33818E+04 29120   0.108E+03
DAV:   2     0.106200427148E+03   -0.11526E+04   -0.10551E+04 28326   0.327E+02
DAV:   3    -0.792027876522E+02   -0.18540E+03   -0.16527E+03 28694   0.135E+02
DAV:   4    -0.885239098407E+02   -0.93211E+01   -0.91616E+01 32978   0.367E+01
DAV:   5    -0.889082495050E+02   -0.38434E+00   -0.38415E+00 42348   0.732E+00    0.558E+01
RMM:   6    -0.113228069422E+03   -0.24320E+02   -0.41997E+01 28584   0.204E+01    0.332E+01
RMM:   7    -0.123397671815E+03   -0.10170E+02   -0.19903E+01 29588   0.122E+01    0.295E+01
RMM:   8    -0.114236919538E+03    0.91608E+01   -0.85148E+00 31405   0.953E+00    0.809E+00
RMM:   9    -0.114194390342E+03    0.42529E-01   -0.23263E+00 32770   0.489E+00    0.308E+00
RMM:  10    -0.114076211505E+03    0.11818E+00   -0.16829E-01 34843   0.128E+00    0.803E-01
RMM:  11    -0.114067591388E+03    0.86201E-02   -0.26333E-02 33411   0.532E-01    0.671E-01
RMM:  12    -0.114061889036E+03    0.57024E-02   -0.45802E-03 33611   0.229E-01    0.189E-01
RMM:  13    -0.114061571680E+03    0.31736E-03   -0.12131E-03 28857   0.821E-02    0.470E-02
RMM:  14    -0.114061654647E+03   -0.82967E-04   -0.38172E-04 20794   0.387E-02
   1 F= -.11406165E+03 E0= -.11393952E+03  d E =-.114062E+03  mag=     4.6596
 BRION: g(F)=  0.255E-37 g(S)=  0.173E+02
 bond charge predicted
       N       E                     dE             d eps       ncg     rms          rms(c)
DAV:   1    -0.282112757298E+03   -0.16805E+03   -0.41160E+03 28604   0.370E+02    0.732E+01
RMM:   2    -0.313499651248E+03   -0.31387E+02   -0.60061E+02 29501   0.763E+01    0.105E+02
RMM:   3    -0.157320038838E+03    0.15618E+03   -0.11122E+02 31791   0.268E+01    0.426E+01
RMM:   4    -0.107771479464E+03    0.49549E+02   -0.41565E+01 29371   0.211E+01    0.150E+01
RMM:   5    -0.103998655004E+03    0.37728E+01   -0.66619E+00 30243   0.862E+00    0.104E+01
RMM:   6    -0.102687679199E+03    0.13110E+01   -0.51444E-01 32350   0.223E+00    0.409E+00
RMM:   7    -0.103524364726E+03   -0.83669E+00   -0.65226E-01 28447   0.225E+00    0.111E+01
RMM:   8    -0.103849836061E+03   -0.32547E+00   -0.99959E-02 30632   0.620E-01    0.115E+01
RMM:   9    -0.103467915676E+03    0.38192E+00   -0.27159E-01 28328   0.137E+00    0.572E+00
RMM:  10    -0.103333126858E+03    0.13479E+00   -0.16548E-01 28332   0.894E-01    0.162E+00
RMM:  11    -0.103330494360E+03    0.26325E-02   -0.63472E-02 27335   0.587E-01    0.125E+00
RMM:  12    -0.103310772865E+03    0.19721E-01   -0.26714E-02 27269   0.373E-01    0.830E-01
RMM:  13    -0.103327675888E+03   -0.16903E-01   -0.63857E-03 27579   0.230E-01    0.119E+00
RMM:  14    -0.103330219711E+03   -0.25438E-02   -0.55522E-03 25954   0.190E-01    0.388E-01
RMM:  15    -0.103328196932E+03    0.20228E-02   -0.17501E-03 25590   0.109E-01    0.219E-01
RMM:  16    -0.103329073039E+03   -0.87611E-03   -0.17459E-04 20254   0.271E-02    0.829E-02
RMM:  17    -0.103329170634E+03   -0.97595E-04   -0.51539E-05 17038   0.188E-02
   2 F= -.10332917E+03 E0= -.10316447E+03  d E =0.107325E+02  mag=    -7.6173
 BRION: g(F)=  0.520E-37 g(S)=  0.961E+02 retain N=  1 mean eig= 0.27
 eig:   0.271
 bond charge predicted
       N       E                     dE             d eps       ncg     rms          rms(c)
DAV:   1    -0.222893090340E+03   -0.11956E+03   -0.17159E+03 30982   0.180E+02    0.684E+01
RMM:   2    -0.262951499880E+03   -0.40058E+02   -0.45278E+02 30488   0.817E+01    0.578E+01
RMM:   3    -0.133823042055E+03    0.12913E+03   -0.11122E+02 30449   0.445E+01    0.250E+01
RMM:   4    -0.211642402181E+03   -0.77819E+02   -0.25998E+02 28846   0.506E+01    0.870E+01
RMM:   5    -0.117961438152E+03    0.93681E+02   -0.22188E+01 30033   0.141E+01    0.104E+01
RMM:   6    -0.116086474277E+03    0.18750E+01   -0.21060E+00 34312   0.465E+00    0.346E+00
RMM:   7    -0.116133814036E+03   -0.47340E-01   -0.75599E-01 33987   0.230E+00    0.432E+00
RMM:   8    -0.115909341873E+03    0.22447E+00   -0.12202E-01 33493   0.105E+00    0.884E-01
RMM:   9    -0.115923458623E+03   -0.14117E-01   -0.15669E-02 37348   0.379E-01    0.131E+00
RMM:  10    -0.115929932574E+03   -0.64740E-02   -0.18604E-03 31766   0.116E-01    0.149E+00
RMM:  11    -0.115900473109E+03    0.29459E-01   -0.11291E-02 27047   0.305E-01    0.618E-01
RMM:  12    -0.115901281650E+03   -0.80854E-03   -0.38222E-03 27500   0.169E-01    0.387E-01
RMM:  13    -0.115902183981E+03   -0.90233E-03   -0.77542E-04 25874   0.765E-02    0.212E-01
RMM:  14    -0.115902145525E+03    0.38456E-04   -0.45645E-04 20795   0.454E-02
   3 F= -.11590215E+03 E0= -.11568595E+03  d E =-.125730E+02  mag=    -0.0787
 BRION: g(F)=  0.135E-36 g(S)=  0.375E-01 retain N=  1 mean eig= 0.27
 eig:   0.273
 bond charge predicted
       N       E                     dE             d eps       ncg     rms          rms(c)
DAV:   1    -0.116014094398E+03   -0.11191E+00   -0.30821E+00 29588   0.705E+00    0.220E+00
RMM:   2    -0.116244793807E+03   -0.23070E+00   -0.58800E-01 29355   0.278E+00    0.497E+00
RMM:   3    -0.115935643575E+03    0.30915E+00   -0.15406E-01 32467   0.125E+00    0.839E-01
RMM:   4    -0.115918696739E+03    0.16947E-01   -0.20212E-02 34464   0.600E-01    0.418E-01
RMM:   5    -0.115921736911E+03   -0.30402E-02   -0.40950E-03 32932   0.219E-01    0.632E-01
RMM:   6    -0.115914137085E+03    0.75998E-02   -0.27116E-03 28622   0.174E-01    0.253E-01
RMM:   7    -0.115915007195E+03   -0.87011E-03   -0.82541E-04 29460   0.961E-02    0.849E-02
RMM:   8    -0.115915712709E+03   -0.70551E-03   -0.22402E-04 21174   0.577E-02    0.147E-01
RMM:   9    -0.115915363116E+03    0.34959E-03   -0.21900E-04 21433   0.459E-02    0.362E-02
RMM:  10    -0.115915493459E+03   -0.13034E-03   -0.43307E-05 18769   0.286E-02    0.176E-02
RMM:  11    -0.115915521137E+03   -0.27679E-04   -0.26867E-05 18372   0.144E-02
   4 F= -.11591552E+03 E0= -.11570328E+03  d E =-.133756E-01  mag=    -0.0208
 BRION: g(F)=  0.350E-37 g(S)=  0.145E-01 retain N=  2 mean eig= 1.98
 eig:   0.276  3.678
 bond charge predicted
       N       E                     dE             d eps       ncg     rms          rms(c)
DAV:   1    -0.115932120807E+03   -0.16627E-01   -0.34437E-01 29834   0.273E+00    0.842E-01
RMM:   2    -0.115966945867E+03   -0.34825E-01   -0.91420E-02 29513   0.108E+00    0.195E+00
RMM:   3    -0.115920946340E+03    0.46000E-01   -0.24086E-02 32649   0.482E-01    0.338E-01
RMM:   4    -0.115918532462E+03    0.24139E-02   -0.26685E-03 33959   0.227E-01    0.127E-01
RMM:   5    -0.115918655713E+03   -0.12325E-03   -0.54045E-04 27054   0.863E-02    0.187E-01
RMM:   6    -0.115918124833E+03    0.53088E-03   -0.14593E-04 20136   0.478E-02    0.108E-01
RMM:   7    -0.115918060667E+03    0.64166E-04   -0.10759E-04 19732   0.293E-02
   5 F= -.11591806E+03 E0= -.11570560E+03  d E =-.253953E-02  mag=    -0.0556
 BRION: g(F)=  0.627E-38 g(S)=  0.492E-03 retain N=  2 mean eig= 0.58
 eig:   0.577  0.577
 bond charge predicted
       N       E                     dE             d eps       ncg     rms          rms(c)
DAV:   1    -0.115918694295E+03   -0.56946E-03   -0.18145E-02 29480   0.562E-01    0.182E-01
RMM:   2    -0.115920176472E+03   -0.14822E-02   -0.38859E-03 29358   0.228E-01    0.407E-01
RMM:   3    -0.115918340459E+03    0.18360E-02   -0.93207E-04 28462   0.978E-02    0.133E-01
RMM:   4    -0.115918654976E+03   -0.31452E-03   -0.15002E-04 21185   0.502E-02    0.206E-01
RMM:   5    -0.115917976419E+03    0.67856E-03   -0.16277E-04 20979   0.456E-02    0.103E-01
RMM:   6    -0.115918047153E+03   -0.70733E-04   -0.20608E-04 20745   0.382E-02
   6 F= -.11591805E+03 E0= -.11570532E+03  d E =0.135146E-04  mag=     0.0152
 BRION: g(F)=  0.123E-36 g(S)=  0.137E-02 retain N=  1 mean eig= 0.09
 eig:   0.092
 bond charge predicted
       N       E                     dE             d eps       ncg     rms          rms(c)
DAV:   1    -0.115918406679E+03   -0.43026E-03   -0.34745E-03 30010   0.299E-01    0.127E-01
RMM:   2    -0.115919253776E+03   -0.84710E-03   -0.12528E-03 27854   0.124E-01    0.296E-01
RMM:   3    -0.115918798620E+03    0.45516E-03   -0.25559E-04 23395   0.516E-02    0.219E-01
RMM:   4    -0.115918373193E+03    0.42543E-03   -0.58708E-05 18468   0.299E-02    0.172E-01
RMM:   5    -0.115917957018E+03    0.41617E-03   -0.22100E-04 21327   0.376E-02    0.391E-02
RMM:   6    -0.115918201116E+03   -0.24410E-03   -0.44418E-05 18041   0.284E-02    0.623E-02
RMM:   7    -0.115918134744E+03    0.66372E-04   -0.33309E-05 17087   0.178E-02
   7 F= -.11591813E+03 E0= -.11570542E+03  d E =-.875916E-04  mag=    -0.0041
 BRION: g(F)=  0.119E-37 g(S)=  0.108E-03 retain N=  1 mean eig= 0.09
 eig:   0.091
 reached required accuracy - stopping structural energy minimisation
