   3   3   0   0
  0.2511886E+02  0.4104300E-09  0.4104300E-09  0.5165500E-09  0.5000000E-15
  1.000000000000000E-004
  CAR 
 unknown system                          
     10.90707066    -34.52213081  301      3.43587378      1.00000000
    -34.522  0.0000E+00  0.0000E+00
    -34.371  0.0000E+00  0.0000E+00
    -34.219  0.0000E+00  0.0000E+00
    -34.068 -0.2291E-28 -0.3469E-29
    -33.916 -0.2483E-23 -0.3760E-24
    -33.765 -0.8472E-19 -0.1283E-19
    -33.614 -0.8830E-15 -0.1337E-15
    -33.462 -0.2924E-11 -0.4429E-12
    -33.311 -0.3000E-08 -0.4547E-09
    -33.159 -0.9377E-06 -0.1425E-06
    -33.008 -0.8649E-04 -0.1324E-04
    -32.856 -0.2154E-02 -0.3394E-03
    -32.705 -0.9232E-02 -0.1737E-02
    -32.554  0.4814E-01  0.5553E-02
    -32.402  0.1886E+00  0.3411E-01
    -32.251  0.1124E+00  0.5113E-01
    -32.099 -0.1833E-02  0.5085E-01
    -31.948 -0.5229E-02  0.5006E-01
    -31.796 -0.3894E-03  0.5000E-01
    -31.645 -0.7146E-05  0.5000E-01
    -31.494 -0.3773E-07  0.5000E-01
    -31.342 -0.6005E-10  0.5000E-01
    -31.191 -0.2941E-13  0.5000E-01
    -31.039  0.0000E+00  0.5000E-01
    -30.888  0.0000E+00  0.5000E-01
    -30.736  0.0000E+00  0.5000E-01
    -30.585  0.0000E+00  0.5000E-01
    -30.434  0.0000E+00  0.5000E-01
    -30.282  0.0000E+00  0.5000E-01
    -30.131  0.0000E+00  0.5000E-01
    -29.979  0.0000E+00  0.5000E-01
    -29.828  0.0000E+00  0.5000E-01
    -29.676  0.0000E+00  0.5000E-01
    -29.525  0.0000E+00  0.5000E-01
    -29.373  0.0000E+00  0.5000E-01
    -29.222  0.0000E+00  0.5000E-01
    -29.071  0.0000E+00  0.5000E-01
    -28.919  0.0000E+00  0.5000E-01
    -28.768  0.0000E+00  0.5000E-01
    -28.616  0.0000E+00  0.5000E-01
    -28.465  0.0000E+00  0.5000E-01
    -28.313  0.0000E+00  0.5000E-01
    -28.162  0.0000E+00  0.5000E-01
    -28.011  0.0000E+00  0.5000E-01
    -27.859  0.0000E+00  0.5000E-01
    -27.708  0.0000E+00  0.5000E-01
    -27.556  0.0000E+00  0.5000E-01
    -27.405  0.0000E+00  0.5000E-01
    -27.253  0.0000E+00  0.5000E-01
    -27.102  0.0000E+00  0.5000E-01
    -26.951  0.0000E+00  0.5000E-01
    -26.799  0.0000E+00  0.5000E-01
    -26.648  0.0000E+00  0.5000E-01
    -26.496  0.0000E+00  0.5000E-01
    -26.345  0.0000E+00  0.5000E-01
    -26.193  0.0000E+00  0.5000E-01
    -26.042  0.0000E+00  0.5000E-01
    -25.891  0.0000E+00  0.5000E-01
    -25.739  0.0000E+00  0.5000E-01
    -25.588  0.0000E+00  0.5000E-01
    -25.436  0.0000E+00  0.5000E-01
    -25.285  0.0000E+00  0.5000E-01
    -25.133  0.0000E+00  0.5000E-01
    -24.982  0.0000E+00  0.5000E-01
    -24.831  0.0000E+00  0.5000E-01
    -24.679  0.0000E+00  0.5000E-01
    -24.528  0.0000E+00  0.5000E-01
    -24.376  0.0000E+00  0.5000E-01
    -24.225  0.0000E+00  0.5000E-01
    -24.073  0.0000E+00  0.5000E-01
    -23.922  0.0000E+00  0.5000E-01
    -23.771  0.0000E+00  0.5000E-01
    -23.619  0.0000E+00  0.5000E-01
    -23.468  0.0000E+00  0.5000E-01
    -23.316  0.0000E+00  0.5000E-01
    -23.165 -0.1305E-32  0.5000E-01
    -23.013 -0.3810E-27  0.5000E-01
    -22.862 -0.3253E-22  0.5000E-01
    -22.711 -0.8787E-18  0.5000E-01
    -22.559 -0.7275E-14  0.5000E-01
    -22.408 -0.1942E-10  0.5000E-01
    -22.256 -0.1629E-07  0.5000E-01
    -22.105 -0.4277E-05  0.5000E-01
    -21.953 -0.3477E-03  0.4995E-01
    -21.802 -0.8424E-02  0.4867E-01
    -21.651 -0.4879E-01  0.4128E-01
    -21.499  0.1093E+00  0.5783E-01
    -21.348  0.1070E+01  0.2198E+00
    -21.196  0.1642E+01  0.4685E+00
    -21.045  0.6129E+00  0.5613E+00
    -20.893 -0.4271E-01  0.5549E+00
    -20.742 -0.2989E-01  0.5503E+00
    -20.591 -0.2103E-02  0.5500E+00
    -20.439 -0.3959E-04  0.5500E+00
    -20.288 -0.2229E-06  0.5500E+00
    -20.136 -0.3872E-09  0.5500E+00
    -19.985 -0.2100E-12  0.5500E+00
    -19.833  0.0000E+00  0.5500E+00
    -19.682  0.0000E+00  0.5500E+00
    -19.530  0.0000E+00  0.5500E+00
    -19.379  0.0000E+00  0.5500E+00
    -19.228  0.0000E+00  0.5500E+00
    -19.076  0.0000E+00  0.5500E+00
    -18.925  0.0000E+00  0.5500E+00
    -18.773  0.0000E+00  0.5500E+00
    -18.622  0.0000E+00  0.5500E+00
    -18.470  0.0000E+00  0.5500E+00
    -18.319  0.0000E+00  0.5500E+00
    -18.168  0.0000E+00  0.5500E+00
    -18.016  0.0000E+00  0.5500E+00
    -17.865  0.0000E+00  0.5500E+00
    -17.713  0.0000E+00  0.5500E+00
    -17.562  0.0000E+00  0.5500E+00
    -17.410  0.0000E+00  0.5500E+00
    -17.259  0.0000E+00  0.5500E+00
    -17.108  0.0000E+00  0.5500E+00
    -16.956  0.0000E+00  0.5500E+00
    -16.805  0.0000E+00  0.5500E+00
    -16.653  0.0000E+00  0.5500E+00
    -16.502  0.0000E+00  0.5500E+00
    -16.350 -0.1426E-30  0.5500E+00
    -16.199 -0.2271E-25  0.5500E+00
    -16.048 -0.1163E-20  0.5500E+00
    -15.896 -0.1916E-16  0.5500E+00
    -15.745 -0.9804E-13  0.5500E+00
    -15.593 -0.1647E-09  0.5500E+00
    -15.442 -0.8780E-07  0.5500E+00
    -15.290 -0.1463E-04  0.5500E+00
    -15.139 -0.7336E-03  0.5499E+00
    -14.988 -0.9735E-02  0.5484E+00
    -14.836 -0.9902E-02  0.5469E+00
    -14.685  0.1987E+00  0.5770E+00
    -14.533  0.4891E+00  0.6511E+00
    -14.382  0.3090E+00  0.6979E+00
    -14.230  0.3109E-01  0.7026E+00
    -14.079 -0.1452E-01  0.7004E+00
    -13.928 -0.2404E-02  0.7000E+00
    -13.776 -0.9246E-04  0.7000E+00
    -13.625 -0.1041E-05  0.7000E+00
    -13.473 -0.3605E-08  0.7000E+00
    -13.322 -0.3913E-11  0.7000E+00
    -13.170 -0.1342E-14  0.7000E+00
    -13.019  0.0000E+00  0.7000E+00
    -12.868  0.0000E+00  0.7000E+00
    -12.716  0.0000E+00  0.7000E+00
    -12.565  0.0000E+00  0.7000E+00
    -12.413  0.0000E+00  0.7000E+00
    -12.262  0.0000E+00  0.7000E+00
    -12.110  0.0000E+00  0.7000E+00
    -11.959  0.0000E+00  0.7000E+00
    -11.808  0.0000E+00  0.7000E+00
    -11.656  0.0000E+00  0.7000E+00
    -11.505  0.0000E+00  0.7000E+00
    -11.353  0.0000E+00  0.7000E+00
    -11.202  0.0000E+00  0.7000E+00
    -11.050  0.0000E+00  0.7000E+00
    -10.899  0.0000E+00  0.7000E+00
    -10.748  0.0000E+00  0.7000E+00
    -10.596  0.0000E+00  0.7000E+00
    -10.445  0.0000E+00  0.7000E+00
    -10.293  0.0000E+00  0.7000E+00
    -10.142  0.0000E+00  0.7000E+00
     -9.990  0.0000E+00  0.7000E+00
     -9.839  0.0000E+00  0.7000E+00
     -9.688 -0.1101E-31  0.7000E+00
     -9.536 -0.1302E-26  0.7000E+00
     -9.385 -0.4917E-22  0.7000E+00
     -9.233 -0.5825E-18  0.7000E+00
     -9.082 -0.2261E-14  0.7000E+00
     -8.930 -0.2870E-11  0.7000E+00
     -8.779 -0.1194E-08  0.7000E+00
     -8.627 -0.1626E-06  0.7000E+00
     -8.476 -0.7095E-05  0.7000E+00
     -8.325 -0.9128E-04  0.7000E+00
     -8.173 -0.1982E-03  0.7000E+00
     -8.022  0.1328E-02  0.7002E+00
     -7.870  0.6132E-02  0.7011E+00
     -7.719  0.1241E-01  0.7030E+00
     -7.567  0.1791E-01  0.7057E+00
     -7.416  0.1936E-01  0.7086E+00
     -7.265  0.1999E-01  0.7116E+00
     -7.113  0.2011E-01  0.7147E+00
     -6.962  0.1967E-01  0.7177E+00
     -6.810  0.2237E-01  0.7210E+00
     -6.659  0.2049E-01  0.7241E+00
     -6.507  0.2256E-01  0.7276E+00
     -6.356  0.2634E-01  0.7316E+00
     -6.205  0.2777E-01  0.7358E+00
     -6.053  0.3377E-01  0.7409E+00
     -5.902  0.2613E-01  0.7448E+00
     -5.750  0.1477E-01  0.7471E+00
     -5.599  0.1037E-01  0.7486E+00
     -5.447  0.6027E-02  0.7495E+00
     -5.296  0.2522E-02  0.7499E+00
     -5.145  0.1337E-02  0.7501E+00
     -4.993  0.3217E-02  0.7506E+00
     -4.842  0.7578E-02  0.7518E+00
     -4.690  0.1492E-01  0.7540E+00
     -4.539  0.2317E-01  0.7575E+00
     -4.387  0.2921E-01  0.7620E+00
     -4.236  0.2647E-01  0.7660E+00
     -4.085  0.1846E-01  0.7688E+00
     -3.933  0.1776E-01  0.7715E+00
     -3.782  0.1874E-01  0.7743E+00
     -3.630  0.1453E-01  0.7765E+00
     -3.479  0.1174E-01  0.7783E+00
     -3.327  0.1517E-01  0.7806E+00
     -3.176  0.1559E-01  0.7829E+00
     -3.025  0.1065E-01  0.7845E+00
     -2.873  0.1158E-01  0.7863E+00
     -2.722  0.1873E-01  0.7891E+00
     -2.570  0.2076E-01  0.7923E+00
     -2.419  0.1393E-01  0.7944E+00
     -2.267  0.1233E-01  0.7962E+00
     -2.116  0.8792E-02  0.7976E+00
     -1.965  0.4175E-02  0.7982E+00
     -1.813  0.4950E-02  0.7990E+00
     -1.662  0.4266E-02  0.7996E+00
     -1.510  0.1711E-02  0.7999E+00
     -1.359  0.6814E-03  0.8000E+00
     -1.207  0.1040E-03  0.8000E+00
     -1.056  0.1308E-02  0.8002E+00
     -0.905  0.4250E-02  0.8008E+00
     -0.753  0.7372E-02  0.8019E+00
     -0.602  0.1132E-01  0.8037E+00
     -0.450  0.1944E-01  0.8066E+00
     -0.299  0.3690E-01  0.8122E+00
     -0.147  0.4774E-01  0.8194E+00
      0.004  0.4836E-01  0.8267E+00
      0.155  0.4982E-01  0.8343E+00
      0.307  0.4453E-01  0.8410E+00
      0.458  0.4164E-01  0.8473E+00
      0.610  0.5362E-01  0.8555E+00
      0.761  0.7524E-01  0.8669E+00
      0.913  0.7015E-01  0.8775E+00
      1.064  0.4595E-01  0.8844E+00
      1.216  0.3072E-01  0.8891E+00
      1.367  0.3519E-01  0.8944E+00
      1.518  0.4486E-01  0.9012E+00
      1.670  0.3531E-01  0.9066E+00
      1.821  0.3406E-01  0.9117E+00
      1.973  0.3925E-01  0.9177E+00
      2.124  0.3889E-01  0.9235E+00
      2.276  0.3924E-01  0.9295E+00
      2.427  0.3737E-01  0.9351E+00
      2.578  0.2899E-01  0.9395E+00
      2.730  0.2161E-01  0.9428E+00
      2.881  0.1522E-01  0.9451E+00
      3.033  0.1022E-01  0.9467E+00
      3.184  0.8301E-02  0.9479E+00
      3.336  0.7381E-02  0.9490E+00
      3.487  0.1010E-01  0.9506E+00
      3.638  0.1150E-01  0.9523E+00
      3.790  0.1575E-01  0.9547E+00
      3.941  0.2545E-01  0.9585E+00
      4.093  0.3232E-01  0.9634E+00
      4.244  0.3985E-01  0.9695E+00
      4.396  0.4799E-01  0.9767E+00
      4.547  0.4974E-01  0.9843E+00
      4.698  0.5199E-01  0.9921E+00
      4.850  0.5719E-01  0.1001E+01
      5.001  0.6046E-01  0.1010E+01
      5.153  0.6108E-01  0.1019E+01
      5.304  0.5669E-01  0.1028E+01
      5.456  0.6862E-01  0.1038E+01
      5.607  0.9046E-01  0.1052E+01
      5.758  0.1001E+00  0.1067E+01
      5.910  0.9947E-01  0.1082E+01
      6.061  0.9734E-01  0.1097E+01
      6.213  0.1050E+00  0.1113E+01
      6.364  0.9665E-01  0.1127E+01
      6.516  0.6549E-01  0.1137E+01
      6.667  0.5235E-01  0.1145E+01
      6.818  0.5289E-01  0.1153E+01
      6.970  0.4579E-01  0.1160E+01
      7.121  0.3458E-01  0.1165E+01
      7.273  0.2709E-01  0.1170E+01
      7.424  0.2521E-01  0.1173E+01
      7.576  0.2572E-01  0.1177E+01
      7.727  0.2573E-01  0.1181E+01
      7.878  0.2201E-01  0.1184E+01
      8.030  0.1964E-01  0.1187E+01
      8.181  0.2007E-01  0.1190E+01
      8.333  0.1955E-01  0.1193E+01
      8.484  0.1754E-01  0.1196E+01
      8.636  0.1474E-01  0.1198E+01
      8.787  0.9291E-02  0.1200E+01
      8.938  0.2201E-02  0.1200E+01
      9.090 -0.2556E-03  0.1200E+01
      9.241 -0.1343E-03  0.1200E+01
      9.393 -0.1190E-04  0.1200E+01
      9.544 -0.3295E-06  0.1200E+01
      9.696 -0.3006E-08  0.1200E+01
      9.847 -0.8979E-11  0.1200E+01
      9.998 -0.8669E-14  0.1200E+01
     10.150 -0.2532E-17  0.1200E+01
     10.301  0.0000E+00  0.1200E+01
     10.453  0.0000E+00  0.1200E+01
     10.604  0.0000E+00  0.1200E+01
     10.756  0.0000E+00  0.1200E+01
     10.907  0.0000E+00  0.1200E+01
